<UPF version="2.0.1">
  <PP_INFO>
    Generated using "atomic" code by A. Dal Corso  v.7.3.1
    Author: ADC
    Generation date: 19Sep2024
    Pseudopotential type: PAW
    Element: Na
    Functional:  SLA  PW   PBX  PBC
    Suggested minimum cutoff for wavefunctions:  41. Ry
    Suggested minimum cutoff for charge density: 163. Ry
    The Pseudo was generated with a Fully-Relativistic Calculation
    L component and cutoff radius for Local Potential:  2   2.0000
    Pseudopotential contains additional information for spin-orbit calculations.
    Valence configuration: 
    nl pn  l   occ       Rcut    Rcut US       E pseu
    2S  1  0  2.00      1.500      1.800    -4.430467
    3S  2  0  0.50      1.500      1.800    -0.376696
    2P  2  1  2.00      1.500      2.000    -2.374866
    2P  2  1  4.00      1.500      2.000    -2.361706
    3P  3  1  0.00      1.500      2.000    -0.192279
    3P  3  1  0.00      1.500      2.000    -0.191980
    Generation configuration:
    2S  1  0  2.00      1.500      1.800    -4.430469
    3S  2  0  0.50      1.500      1.800    -0.376696
    2P  2  1  2.00      1.500      2.000    -2.374868
    2P  2  1  4.00      1.500      2.000    -2.361708
    3P  3  1  0.00      1.500      2.000    -0.192280
    3P  3  1  0.00      1.500      2.000    -0.191980
    3D  3  2 -2.00      2.000      2.000     0.300000
    3D  3  2  0.00      2.000      2.000     0.300000
    Pseudization used: troullier-martins
    <PP_INPUTFILE>
@input
title='Na',
zed=11.0,
rel=2,
config='[Ne] 3s0.5 3p0 3d-2',
iswitch=3,
dft='PBE'
/
@inputp
lpaw=.true.,
pseudotype=3,
file_pseudopw='Na.rel-pbe-spn-kjpaw_psl.0.2.UPF',
author='ADC',
lloc=2,
which_augfun='PSQ',
rmatch_augfun=1.6,
tm=.true.
/
5
2S  1  0  2.00  0.00  1.50  1.80  0.0
3S  2  0  0.50  0.00  1.50  1.80  0.0
2P  2  1  6.00  0.00  1.50  2.00  0.0
3P  3  1  0.00  0.00  1.50  2.00  0.0
3D  3  2 -2.00  0.30  2.00  2.00  0.0
    </PP_INPUTFILE>
  </PP_INFO>
    <!-- END OF HUMAN READABLE SECTION -->
  <PP_HEADER generated="Generated using 'atomic' code by A. Dal Corso  v.7.3.1" author="ADC" date="19Sep2024" comment="" element="Na" pseudo_type="PAW" relativistic="full" is_ultrasoft="true" is_paw="true" is_coulomb="false" has_so="true" has_wfc="true" has_gipaw="false" paw_as_gipaw="false" core_correction="false" with_metagga_info="false" functional=" SLA  PW   PBX  PBC" z_valence="9.00000000000000" total_psenergy="-109.012754673465" wfc_cutoff="40.7296603835347" rho_cutoff="162.918641534139" l_max="1" l_max_rho="2" l_local="2" mesh_size="1121" number_of_wfc="6" number_of_proj="6"/>
  <PP_MESH mesh="1121" dx="1.250000000000000E-002" xmin="-7.00000000000000" rmax="100.000000000000" zmesh="11.0000000000000">
    <PP_R>
   8.289836050495602E-05   8.394109351536566E-05   8.499694249241656E-05
   8.606607241465945E-05   8.714865033581999E-05   8.824484541090081E-05
   8.935482892261261E-05   9.047877430813739E-05   9.161685718622822E-05
   9.276925538465042E-05   9.393614896796701E-05   9.511772026567441E-05
   9.631415390069183E-05   9.752563681820880E-05   9.875235831489617E-05
   9.999451006848348E-05   1.012522861677094E-04   1.025258831426484E-04
   1.038154999954189E-04   1.051213382312780E-04   1.064436018901068E-04
   1.077824975782921E-04   1.091382345010092E-04   1.105110244949104E-04
   1.119010820612255E-04   1.133086243992772E-04   1.147338714404195E-04
   1.161770458824022E-04   1.176383732241680E-04   1.191180818010873E-04
   1.206164028206356E-04   1.221335703985206E-04   1.236698215952631E-04
   1.252253964532379E-04   1.268005380341817E-04   1.283954924571710E-04
   1.300105089370795E-04   1.316458398235178E-04   1.333017406402639E-04
   1.349784701251897E-04   1.366762902706884E-04   1.383954663646120E-04
   1.401362670317228E-04   1.418989642756666E-04   1.436838335214743E-04
   1.454911536585968E-04   1.473212070844824E-04   1.491742797487024E-04
   1.510506611976304E-04   1.529506446196856E-04   1.548745268911431E-04
   1.568226086225220E-04   1.587951942055563E-04   1.607925918607564E-04
   1.628151136855700E-04   1.648630757031468E-04   1.669367979117188E-04
   1.690366043346001E-04   1.711628230708161E-04   1.733157863463706E-04
   1.754958305661554E-04   1.777032963665152E-04   1.799385286684724E-04
   1.822018767316217E-04   1.844936942087031E-04   1.868143392008599E-04
   1.891641743135936E-04   1.915435667134213E-04   1.939528881852462E-04
   1.963925151904504E-04   1.988628289257168E-04   2.013642153825924E-04
   2.038970654078003E-04   2.064617747643097E-04   2.090587441931760E-04
   2.116883794761558E-04   2.143510914991121E-04   2.170472963162158E-04
   2.197774152149549E-04   2.225418747819621E-04   2.253411069696690E-04
   2.281755491637999E-04   2.310456442517144E-04   2.339518406916091E-04
   2.368945925825907E-04   2.398743597356292E-04   2.428916077454046E-04
   2.459468080630570E-04   2.490404380698517E-04   2.521729811517717E-04
   2.553449267750466E-04   2.585567705626334E-04   2.618090143716584E-04
   2.651021663718334E-04   2.684367411248588E-04   2.718132596648236E-04
   2.752322495796196E-04   2.786942450933766E-04   2.821997871499372E-04
   2.857494234973800E-04   2.893437087736061E-04   2.929832045930024E-04
   2.966684796341953E-04   3.004001097289075E-04   3.041786779519338E-04
   3.080047747122465E-04   3.118789978452486E-04   3.158019527061867E-04
   3.197742522647389E-04   3.237965172007936E-04   3.278693760014300E-04
   3.319934650591221E-04   3.361694287711756E-04   3.403979196404164E-04
   3.446795983771461E-04   3.490151340023785E-04   3.534052039523755E-04
   3.578504941844985E-04   3.623516992843901E-04   3.669095225745053E-04
   3.715246762240061E-04   3.761978813600397E-04   3.809298681804163E-04
   3.857213760677037E-04   3.905731537047581E-04   3.954859591917063E-04
   4.004605601644005E-04   4.054977339143638E-04   4.105982675102424E-04
   4.157629579207884E-04   4.209926121393860E-04   4.262880473101465E-04
   4.316500908555889E-04   4.370795806059260E-04   4.425773649299785E-04
   4.481443028677320E-04   4.537812642645652E-04   4.594891299071649E-04
   4.652687916611501E-04   4.711211526104295E-04   4.770471271983077E-04
   4.830476413703705E-04   4.891236327191655E-04   4.952760506307022E-04
   5.015058564327974E-04   5.078140235452818E-04   5.142015376321008E-04
   5.206693967553259E-04   5.272186115311037E-04   5.338502052875684E-04
   5.405652142247358E-04   5.473646875764145E-04   5.542496877741489E-04
   5.612212906132274E-04   5.682805854207783E-04   5.754286752259770E-04
   5.826666769323985E-04   5.899957214925352E-04   5.974169540845102E-04
   6.049315342910158E-04   6.125406362804970E-04   6.202454489906207E-04
   6.280471763140484E-04   6.359470372865465E-04   6.439462662774660E-04
   6.520461131826090E-04   6.602478436195355E-04   6.685527391253124E-04
   6.769620973567580E-04   6.854772322932069E-04   6.940994744418147E-04
   7.028301710454610E-04   7.116706862932521E-04   7.206224015336813E-04
   7.296867154904692E-04   7.388650444811101E-04   7.481588226381845E-04
   7.575695021334372E-04   7.670985534046846E-04   7.767474653855769E-04
   7.865177457382394E-04   7.964109210888571E-04   8.064285372662053E-04
   8.165721595431924E-04   8.268433728814386E-04   8.372437821789219E-04
   8.477750125207569E-04   8.584387094331101E-04   8.692365391403186E-04
   8.801701888252448E-04   8.912413668928934E-04   9.024518032373647E-04
   9.138032495121442E-04   9.252974794038062E-04   9.369362889091591E-04
   9.487214966158640E-04   9.606549439866049E-04   9.727384956468116E-04
   9.849740396760138E-04   9.973634879028625E-04   1.009908776203846E-03
   1.022611864805788E-03   1.035474738592125E-03   1.048499407413056E-03
   1.061687906399587E-03   1.075042296281511E-03   1.088564663709420E-03
   1.102257121580736E-03   1.116121809369858E-03   1.130160893462463E-03
   1.144376567494000E-03   1.158771052692461E-03   1.173346598225443E-03
   1.188105481551589E-03   1.203050008776449E-03   1.218182515012803E-03
   1.233505364745540E-03   1.249020952201104E-03   1.264731701721602E-03
   1.280640068143612E-03   1.296748537181751E-03   1.313059625817080E-03
   1.329575882690384E-03   1.346299888500400E-03   1.363234256407065E-03
   1.380381632439813E-03   1.397744695911039E-03   1.415326159834735E-03
   1.433128771350408E-03   1.451155312152329E-03   1.469408598924170E-03
   1.487891483779130E-03   1.506606854705569E-03   1.525557636018269E-03
   1.544746788815371E-03   1.564177311441035E-03   1.583852239953956E-03
   1.603774648601742E-03   1.623947650301276E-03   1.644374397125119E-03
   1.665058080794016E-03   1.686001933175626E-03   1.707209226789492E-03
   1.728683275318387E-03   1.750427434126085E-03   1.772445100781636E-03
   1.794739715590253E-03   1.817314762130857E-03   1.840173767800399E-03
   1.863320304365024E-03   1.886757988518158E-03   1.910490482445639E-03
   1.934521494397925E-03   1.958854779269525E-03   1.983494139185707E-03
   2.008443424096586E-03   2.033706532378691E-03   2.059287411444088E-03
   2.085190058357176E-03   2.111418520459234E-03   2.137976896000828E-03
   2.164869334782171E-03   2.192100038801534E-03   2.219673262911821E-03
   2.247593315485400E-03   2.275864559087286E-03   2.304491411156813E-03
   2.333478344697857E-03   2.362829888977759E-03   2.392550630235028E-03
   2.422645212395953E-03   2.453118337800226E-03   2.483974767935688E-03
   2.515219324182325E-03   2.546856888565620E-03   2.578892404519373E-03
   2.611330877658130E-03   2.644177376559316E-03   2.677437033555208E-03
   2.711115045534883E-03   2.745216674756227E-03   2.779747249668191E-03
   2.814712165743354E-03   2.850116886320990E-03   2.885966943460723E-03
   2.922267938806915E-03   2.959025544463948E-03   2.996245503882488E-03
   3.033933632756916E-03   3.072095819934051E-03   3.110738028333275E-03
   3.149866295878275E-03   3.189486736440458E-03   3.229605540794270E-03
   3.270228977584515E-03   3.311363394305840E-03   3.353015218294547E-03
   3.395190957732875E-03   3.437897202665917E-03   3.481140626031333E-03
   3.524927984702001E-03   3.569266120541802E-03   3.614161961474665E-03
   3.659622522567077E-03   3.705654907124202E-03   3.752266307799777E-03
   3.799464007719992E-03   3.847255381621483E-03   3.895647897003654E-03
   3.944649115295489E-03   3.994266693037038E-03   4.044508383075775E-03
   4.095382035777984E-03   4.146895600255400E-03   4.199057125607284E-03
   4.251874762178089E-03   4.305356762830993E-03   4.359511484237407E-03
   4.414347388182725E-03   4.469873042888508E-03   4.526097124351268E-03
   4.583028417698125E-03   4.640675818559492E-03   4.699048334459038E-03
   4.758155086221126E-03   4.818005309395982E-03   4.878608355702739E-03
   4.939973694490681E-03   5.002110914218842E-03   5.065029723954218E-03
   5.128739954888850E-03   5.193251561875936E-03   5.258574624985316E-03
   5.324719351078505E-03   5.391696075403520E-03   5.459515263209813E-03
   5.528187511383452E-03   5.597723550102931E-03   5.668134244515769E-03
   5.739430596436216E-03   5.811623746064324E-03   5.884724973726596E-03
   5.958745701638579E-03   6.033697495689604E-03   6.109592067249978E-03
   6.186441275000927E-03   6.264257126787507E-03   6.343051781494879E-03
   6.422837550948148E-03   6.503626901836110E-03   6.585432457659223E-03
   6.668267000702013E-03   6.752143474030355E-03   6.837074983513857E-03
   6.923074799873666E-03   7.010156360756065E-03   7.098333272832106E-03
   7.187619313923699E-03   7.278028435156417E-03   7.369574763139385E-03
   7.462272602172618E-03   7.556136436482051E-03   7.651180932482764E-03
   7.747420941070626E-03   7.844871499942773E-03   7.943547835947308E-03
   8.043465367462484E-03   8.144639706805883E-03   8.247086662673868E-03
   8.350822242611718E-03   8.455862655514863E-03   8.562224314161516E-03
   8.669923837777241E-03   8.778978054631716E-03   8.889404004668186E-03
   9.001218942166028E-03   9.114440338436704E-03   9.229085884553736E-03
   9.345173494116949E-03   9.462721306051513E-03   9.581747687442212E-03
   9.702271236403291E-03   9.824310784984483E-03   9.947885402113544E-03
   1.007301439657582E-02   1.019971732003125E-02   1.032801397006943E-02
   1.045792439330295E-02   1.058946888849973E-02   1.072266800975478E-02
   1.085754256970178E-02   1.099411364276515E-02   1.113240256845290E-02
   1.127243095469103E-02   1.141422068119976E-02   1.155779390291233E-02
   1.170317305343675E-02   1.185038084856106E-02   1.199944028980275E-02
   1.215037466800277E-02   1.230320756696479E-02   1.245796286714023E-02
   1.261466474935957E-02   1.277333769861074E-02   1.293400650786488E-02
   1.309669628195030E-02   1.326143244147522E-02   1.342824072679971E-02
   1.359714720205774E-02   1.376817825922970E-02   1.394136062226622E-02
   1.411672135126391E-02   1.429428784669342E-02   1.447408785368094E-02
   1.465614946634335E-02   1.484050113217804E-02   1.502717165650787E-02
   1.521619020698205E-02   1.540758631813365E-02   1.560138989599444E-02
   1.579763122276774E-02   1.599634096156014E-02   1.619755016117259E-02
   1.640129026095190E-02   1.660759309570316E-02   1.681649090066403E-02
   1.702801631654155E-02   1.724220239461230E-02   1.745908260188675E-02
   1.767869082633852E-02   1.790106138219946E-02   1.812622901532138E-02
   1.835422890860504E-02   1.858509668749764E-02   1.881886842555934E-02
   1.905558065009980E-02   1.929527034788574E-02   1.953797497092006E-02
   1.978373244229391E-02   2.003258116211218E-02   2.028456001349362E-02
   2.053970836864644E-02   2.079806609502023E-02   2.105967356153535E-02
   2.132457164489071E-02   2.159280173595074E-02   2.186440574621292E-02
   2.213942611435643E-02   2.241790581287333E-02   2.269988835478307E-02
   2.298541780043150E-02   2.327453876437546E-02   2.356729642235378E-02
   2.386373651834613E-02   2.416390537172062E-02   2.446784988447126E-02
   2.477561754854660E-02   2.508725645327029E-02   2.540281529285522E-02
   2.572234337401209E-02   2.604589062365364E-02   2.637350759669594E-02
   2.670524548395754E-02   2.704115612015825E-02   2.738129199201839E-02
   2.772570624645994E-02   2.807445269891090E-02   2.842758584171399E-02
   2.878516085264122E-02   2.914723360351553E-02   2.951386066894088E-02
   2.988509933514220E-02   3.026100760891633E-02   3.064164422669586E-02
   3.102706866372672E-02   3.141734114336132E-02   3.181252264646867E-02
   3.221267492096262E-02   3.261786049145016E-02   3.302814266900105E-02
   3.344358556104021E-02   3.386425408136482E-02   3.429021396028700E-02
   3.472153175490447E-02   3.515827485950013E-02   3.560051151607264E-02
   3.604831082499936E-02   3.650174275583334E-02   3.696087815823630E-02
   3.742578877304898E-02   3.789654724350076E-02   3.837322712656050E-02
   3.885590290442971E-02   3.934464999618068E-02   3.983954476954087E-02
   4.034066455282544E-02   4.084808764702015E-02   4.136189333801579E-02
   4.188216190899691E-02   4.240897465298624E-02   4.294241388554679E-02
   4.348256295764402E-02   4.402950626866933E-02   4.458332927962785E-02
   4.514411852649181E-02   4.571196163372190E-02   4.628694732795902E-02
   4.686916545188766E-02   4.745870697827421E-02   4.805566402418161E-02
   4.866012986536275E-02   4.927219895083521E-02   4.989196691763878E-02
   5.051953060577925E-02   5.115498807335965E-02   5.179843861190209E-02
   5.244998276186243E-02   5.310972232833964E-02   5.377776039698322E-02
   5.445420135010053E-02   5.513915088296668E-02   5.583271602033981E-02
   5.653500513318366E-02   5.724612795560094E-02   5.796619560197944E-02
   5.869532058435382E-02   5.943361682998613E-02   6.018119969916675E-02
   6.093818600323997E-02   6.170469402285590E-02   6.248084352645202E-02
   6.326675578896747E-02   6.406255361079215E-02   6.486836133695481E-02
   6.568430487655207E-02   6.651051172242198E-02   6.734711097106527E-02
   6.819423334281655E-02   6.905201120226991E-02   6.992057857896100E-02
   7.080007118830954E-02   7.169062645282516E-02   7.259238352357976E-02
   7.350548330195027E-02   7.443006846163477E-02   7.536628347094548E-02
   7.631427461538250E-02   7.727419002049077E-02   7.824617967500530E-02
   7.923039545428713E-02   8.022699114405413E-02   8.123612246441053E-02
   8.225794709417816E-02   8.329262469553438E-02   8.434031693895941E-02
   8.540118752849780E-02   8.647540222733764E-02   8.756312888371111E-02
   8.866453745712120E-02   8.977980004489837E-02   9.090909090909091E-02
   9.205258650369406E-02   9.321046550222084E-02   9.438290882562050E-02
   9.557009967054771E-02   9.677222353798721E-02   9.798946826223925E-02
   9.922202404026836E-02   1.004700834614226E-01   1.017338415375256E-01
   1.030134957333479E-01   1.043092459974611E-01   1.056212947934803E-01
   1.069498471316992E-01   1.082951106011235E-01   1.096572954019073E-01
   1.110366143781973E-01   1.124332830513896E-01   1.138475196538059E-01
   1.152795451627928E-01   1.167295833352492E-01   1.181978607425901E-01
   1.196846068061475E-01   1.211900538330185E-01   1.227144370523640E-01
   1.242579946521633E-01   1.258209678164320E-01   1.274036007629067E-01
   1.290061407812053E-01   1.306288382714660E-01   1.322719467834728E-01
   1.339357230562742E-01   1.356204270582974E-01   1.373263220279703E-01
   1.390536745148527E-01   1.408027544212848E-01   1.425738350445608E-01
   1.443671931196313E-01   1.461831088623440E-01   1.480218660132283E-01
   1.498837518818298E-01   1.517690573916039E-01   1.536780771253720E-01
   1.556111093713514E-01   1.575684561697633E-01   1.595504233600271E-01
   1.615573206285490E-01   1.635894615571099E-01   1.656471636718646E-01
   1.677307484929546E-01   1.698405415847475E-01   1.719768726067064E-01
   1.741400753648997E-01   1.763304878641596E-01   1.785484523608953E-01
   1.807943154165720E-01   1.830684279518615E-01   1.853711453014742E-01
   1.877028272696807E-01   1.900638381865325E-01   1.924545469647886E-01
   1.948753271575600E-01   1.973265570166766E-01   1.998086195517912E-01
   2.023219025902245E-01   2.048667988375644E-01   2.074437059390276E-01
   2.100530265415913E-01   2.126951683569084E-01   2.153705442250129E-01
   2.180795721788271E-01   2.208226755094808E-01   2.236002828324501E-01
   2.264128281545302E-01   2.292607509416500E-01   2.321444961875388E-01
   2.350645144832588E-01   2.380212620876092E-01   2.410152009984189E-01
   2.440467990247338E-01   2.471165298599132E-01   2.502248731556461E-01
   2.533723145968956E-01   2.565593459777908E-01   2.597864652784696E-01
   2.630541767428874E-01   2.663629909576095E-01   2.697134249315881E-01
   2.731060021769484E-01   2.765412527907878E-01   2.800197135380028E-01
   2.835419279351632E-01   2.871084463354335E-01   2.907198260145704E-01
   2.943766312579967E-01   2.980794334489703E-01   3.018288111578683E-01
   3.056253502325846E-01   3.094696438900744E-01   3.133622928090434E-01
   3.173039052238038E-01   3.212950970193157E-01   3.253364918274164E-01
   3.294287211242674E-01   3.335724243290224E-01   3.377682489037367E-01
   3.420168504545377E-01   3.463188928340602E-01   3.506750482451794E-01
   3.550859973460413E-01   3.595524293564161E-01   3.640750421653935E-01
   3.686545424404251E-01   3.732916457377465E-01   3.779870766141828E-01
   3.827415687403600E-01   3.875558650153474E-01   3.924307176827313E-01
   3.973668884481597E-01   4.023651485983580E-01   4.074262791216423E-01
   4.125510708299552E-01   4.177403244824264E-01   4.229948509104972E-01
   4.283154711446132E-01   4.337030165425093E-01   4.391583289191167E-01
   4.446822606780915E-01   4.502756749450103E-01   4.559394457022330E-01
   4.616744579254620E-01   4.674816077220265E-01   4.733618024708955E-01
   4.793159609644627E-01   4.853450135521072E-01   4.914499022855606E-01
   4.976315810661096E-01   5.038910157936386E-01   5.102291845175595E-01
   5.166470775896316E-01   5.231456978187028E-01   5.297260606274072E-01
   5.363891942108198E-01   5.431361396971202E-01   5.499679513102682E-01
   5.568856965347261E-01   5.638904562822611E-01   5.709833250608333E-01
   5.781654111456208E-01   5.854378367521876E-01   5.928017382118284E-01
   6.002582661491304E-01   6.078085856617520E-01   6.154538765024794E-01
   6.231953332635620E-01   6.310341655633669E-01   6.389715982353910E-01
   6.470088715196360E-01   6.551472412564059E-01   6.633879790825307E-01
   6.717323726300591E-01   6.801817257274624E-01   6.887373586033498E-01
   6.974006080927662E-01   7.061728278460707E-01   7.150553885404447E-01
   7.240496780940709E-01   7.331571018829887E-01   7.423790829606951E-01
   7.517170622804976E-01   7.611724989206604E-01   7.707468703123983E-01
   7.804416724707178E-01   7.902584202281819E-01   8.001986474716012E-01
   8.102639073817034E-01   8.204557726758300E-01   8.307758358536662E-01
   8.412257094460809E-01   8.518070262670850E-01   8.625214396689569E-01
   8.733706238005919E-01   8.843562738690807E-01   8.954801064045982E-01
   9.067438595286116E-01   9.181492932254595E-01   9.296981896173645E-01
   9.413923532428814E-01   9.532336113388701E-01   9.652238141260010E-01
   9.773648350978504E-01   9.896585713136500E-01   1.002106943694691E+00
   1.014711897324488E+00   1.027475401752690E+00   1.040399451302829E+00
   1.053486065383946E+00   1.066737288806110E+00   1.080155192099945E+00
   1.093741871840140E+00   1.107499450973043E+00   1.121430079148388E+00
   1.135535933055165E+00   1.149819216761747E+00   1.164282162060277E+00
   1.178927028815376E+00   1.193756105317275E+00   1.208771708639344E+00
   1.223976185000155E+00   1.239371910130070E+00   1.254961289642463E+00
   1.270746759409604E+00   1.286730785943255E+00   1.302915866780086E+00
   1.319304530871902E+00   1.335899338980813E+00   1.352702884079350E+00
   1.369717791755617E+00   1.386946720623562E+00   1.404392362738366E+00
   1.422057444017107E+00   1.439944724664676E+00   1.458056999605061E+00
   1.476397098918078E+00   1.494967888281551E+00   1.513772269419104E+00
   1.532813180553550E+00   1.552093596865987E+00   1.571616530960697E+00
   1.591385033335845E+00   1.611402192860149E+00   1.631671137255514E+00
   1.652195033585733E+00   1.672977088751370E+00   1.694020549990820E+00
   1.715328705387717E+00   1.736904884384697E+00   1.758752458303620E+00
   1.780874840872365E+00   1.803275488758212E+00   1.825957902107970E+00
   1.848925625094875E+00   1.872182246472367E+00   1.895731400134858E+00
   1.919576765685512E+00   1.943722069011213E+00   1.968171082864734E+00
   1.992927627454225E+00   2.017995571040151E+00   2.043378830539693E+00
   2.069081372138794E+00   2.095107211911873E+00   2.121460416449338E+00
   2.148145103493023E+00   2.175165442579559E+00   2.202525655691907E+00
   2.230230017919034E+00   2.258282858123895E+00   2.286688559619854E+00
   2.315451560855554E+00   2.344576356108460E+00   2.374067496187090E+00
   2.403929589142073E+00   2.434167300986196E+00   2.464785356423446E+00
   2.495788539587282E+00   2.527181694788154E+00   2.558969727270423E+00
   2.591157603978847E+00   2.623750354334640E+00   2.656753071021358E+00
   2.690170910780635E+00   2.724009095217911E+00   2.758272911618360E+00
   2.792967713772994E+00   2.828098922815242E+00   2.863672028067997E+00
   2.899692587901318E+00   2.936166230600975E+00   2.973098655247834E+00
   3.010495632608392E+00   3.048363006036451E+00   3.086706692386141E+00
   3.125532682936475E+00   3.164847044327459E+00   3.204655919508049E+00
   3.244965528695992E+00   3.285782170349721E+00   3.327112222152549E+00
   3.368962142009145E+00   3.411338469054637E+00   3.454247824676346E+00
   3.497696913548376E+00   3.541692524679275E+00   3.586241532472778E+00
   3.631350897801994E+00   3.677027669097039E+00   3.723278983446346E+00
   3.770112067711892E+00   3.817534239658364E+00   3.865552909096617E+00
   3.914175579041451E+00   3.963409846883955E+00   4.013263405578662E+00
   4.063744044845532E+00   4.114859652387160E+00   4.166618215121228E+00
   4.219027820428452E+00   4.272096657416305E+00   4.325833018198519E+00
   4.380245299190801E+00   4.435342002422769E+00   4.491131736866381E+00
   4.547623219781165E+00   4.604825278076242E+00   4.662746849689610E+00
   4.721396984984681E+00   4.780784848164405E+00   4.840919718703245E+00
   4.901810992797052E+00   4.963468184831294E+00   5.025900928867681E+00
   5.089118980149468E+00   5.153132216625806E+00   5.217950640495112E+00
   5.283584379767999E+00   5.350043689849769E+00   5.417338955142817E+00
   5.485480690669278E+00   5.554479543713943E+00   5.624346295487990E+00
   5.695091862813538E+00   5.766727299829395E+00   5.839263799718359E+00
   5.912712696456092E+00   5.987085466582155E+00   6.062393730993201E+00
   6.138649256758741E+00   6.215863958959838E+00   6.294049902550785E+00
   6.373219304244350E+00   6.453384534420630E+00   6.534558119059915E+00
   6.616752741699977E+00   6.699981245417804E+00   6.784256634836447E+00
   6.869592078156971E+00   6.956000909215990E+00   7.043496629569179E+00
   7.132092910600832E+00   7.221803595660121E+00   7.312642702224119E+00
   7.404624424088013E+00   7.497763133583010E+00   7.592073383821934E+00
   7.687569910973273E+00   7.784267636563697E+00   7.882181669809537E+00
   7.981327309977720E+00   8.081720048776212E+00   8.183375572774709E+00
   8.286309765855677E+00   8.390538711696172E+00   8.496078696281067E+00
   8.602946210447650E+00   8.711157952462443E+00   8.820730830630312E+00
   8.931681965936370E+00   9.044028694721268E+00   9.157788571389920E+00
   9.272979371154518E+00   9.389619092811897E+00   9.507725961555838E+00
   9.627318431824911E+00   9.748415190185868E+00   9.871035158253600E+00
   9.995197495647600E+00   1.012092160298567E+01   1.024822712491539E+01
   1.037713395318355E+01   1.050766222974433E+01   1.063983234990654E+01
   1.077366496552030E+01   1.090918098820414E+01   1.104640159261227E+01
   1.118534821974332E+01   1.132604258029050E+01   1.146850665803383E+01
   1.161276271327537E+01   1.175883328631718E+01   1.190674120098351E+01
   1.205650956818697E+01   1.220816178953959E+01   1.236172156100956E+01
   1.251721287662352E+01   1.267466003221592E+01   1.283408762922518E+01
   1.299552057853764E+01   1.315898410438010E+01   1.332450374826102E+01
   1.349210537296151E+01   1.366181516657645E+01   1.383365964660633E+01
   1.400766566410081E+01   1.418386040785410E+01   1.436227140865341E+01
   1.454292654358061E+01   1.472585404036803E+01   1.491108248180927E+01
   1.509864081022510E+01   1.528855833198595E+01   1.548086472209101E+01
   1.567559002880494E+01   1.587276467835313E+01   1.607241947967568E+01
   1.627458562924151E+01   1.647929471592285E+01   1.668657872593091E+01
   1.689647004781403E+01   1.710900147751823E+01   1.732420622351182E+01
   1.754211791197423E+01   1.776277059205009E+01   1.798619874116961E+01
   1.821243727043562E+01   1.844152153007863E+01   1.867348731498031E+01
   1.890837087026642E+01   1.914620889697043E+01   1.938703855776782E+01
   1.963089748278310E+01   1.987782377546947E+01   2.012785601856247E+01
   2.038103328010884E+01   2.063739511957074E+01   2.089698159400717E+01
   2.115983326433293E+01   2.142599120165624E+01   2.169549699369635E+01
   2.196839275128152E+01   2.224472111492912E+01   2.252452526150821E+01
   2.280784891098587E+01   2.309473633325884E+01   2.338523235507045E+01
   2.367938236701516E+01   2.397723233063084E+01   2.427882878558020E+01
   2.458421885692300E+01   2.489345026247914E+01   2.520657132028491E+01
   2.552363095614269E+01   2.584467871126554E+01   2.616976475001849E+01
   2.649893986775638E+01   2.683225549876112E+01   2.716976372427823E+01
   2.751151728065453E+01   2.785756956757860E+01   2.820797465642422E+01
   2.856278729869947E+01   2.892206293460164E+01   2.928585770167969E+01
   2.965422844360621E+01   3.002723271905899E+01   3.040492881071500E+01
   3.078737573435705E+01   3.117463324809495E+01   3.156676186170319E+01
   3.196382284607535E+01   3.236587824279810E+01   3.277299087384525E+01
   3.318522435139354E+01   3.360264308776266E+01   3.402531230547929E+01
   3.445329804746869E+01   3.488666718737384E+01   3.532548744000444E+01
   3.576982737191786E+01   3.621975641213236E+01   3.667534486297592E+01
   3.713666391107096E+01   3.760378563845716E+01   3.807678303385494E+01
   3.855573000406951E+01   3.904070138553945E+01   3.953177295602988E+01
   4.002902144647263E+01   4.053252455295614E+01   4.104236094886505E+01
   4.155861029717354E+01   4.208135326289269E+01   4.261067152567427E+01
   4.314664779257390E+01   4.368936581097358E+01   4.423891038166793E+01
   4.479536737211425E+01   4.535882372984928E+01   4.592936749607541E+01
   4.650708781941675E+01   4.709207496984927E+01   4.768442035280550E+01
   4.828421652345646E+01   4.889155720117431E+01   4.950653728417540E+01
   5.012925286434898E+01   5.075980124227146E+01   5.139828094240956E+01
   5.204479172851563E+01   5.269943461921513E+01   5.336231190379171E+01
   5.403352715816984E+01   5.471318526109838E+01   5.540139241053892E+01
   5.609825614025851E+01   5.680388533663281E+01   5.751839025565946E+01
   5.824188254018554E+01   5.897447523735264E+01   5.971628281625998E+01
   6.046742118585107E+01   6.122800771302450E+01   6.199816124097232E+01
   6.277800210775040E+01   6.356765216508052E+01   6.436723479739085E+01
   6.517687494109454E+01   6.599669910411103E+01   6.682683538563400E+01
   6.766741349614610E+01   6.851856477768739E+01   6.938042222437743E+01
   7.025312050319545E+01   7.113679597502333E+01   7.203158671595109E+01
   7.293763253885264E+01   7.385507501523126E+01   7.478405749734021E+01
   7.572472514058262E+01   7.667722492619123E+01   7.764170568419560E+01
   7.861831811667652E+01   7.960721482131326E+01   8.060855031522811E+01
   8.162248105912894E+01   8.264916548175748E+01   8.368876400464373E+01
   8.474143906717167E+01   8.580735515196180E+01   8.688667881057069E+01
   8.797957868951606E+01   8.908622555662765E+01   9.020679232772966E+01
   9.134145409366016E+01   9.249038814762829E+01   9.365377401291762E+01
   9.483179347093673E+01   9.602463058962229E+01   9.723247175220128E+01
   9.845550568631238E+01   9.969392349349623E+01