<UPF version="2.0.1">
  <PP_INFO>
    Generated using "atomic" code by A. Dal Corso  v.7.3.1
    Author: ADC
    Generation date: 19Sep2024
    Pseudopotential type: USPP
    Element: Te
    Functional: PBE
    Suggested minimum cutoff for wavefunctions:  43. Ry
    Suggested minimum cutoff for charge density: 211. Ry
    The Pseudo was generated with a Fully-Relativistic Calculation
    Local Potential by smoothing AE potential with Bessel fncs, cutoff radius:   2.1000
    Pseudopotential contains additional information for spin-orbit calculations.
    Valence configuration: 
    nl pn  l   occ       Rcut    Rcut US       E pseu
    5S  1  0  2.00      1.700      2.000    -1.100778
    5P  2  1  2.00      1.900      2.400    -0.470999
    5P  2  1  2.00      1.900      2.400    -0.413177
    4D  3  2  4.00      1.600      1.700    -3.109220
    4D  3  2  6.00      1.600      1.700    -3.001452
    Generation configuration:
    5S  1  0  2.00      1.700      2.000    -1.100775
    5S  1  0  0.00      1.700      2.000     6.300000
    5P  2  1  2.00      1.900      2.400    -0.470999
    5P  2  1  2.00      1.900      2.400    -0.413175
    5P  2  1  0.00      1.900      2.400     6.300000
    5P  2  1  0.00      1.900      2.400     6.300000
    4D  3  2  4.00      1.600      1.700    -3.109221
    4D  3  2  6.00      1.600      1.700    -3.001452
    4D  3  2  0.00      1.600      1.700     1.300000
    4D  3  2  0.00      1.600      1.700     1.300000
    Pseudization used: troullier-martins
    <PP_INPUTFILE>
@input
title='Te',
zed=52.,
rel=2,
config='[Kr] 4d10.0 5s2.0 5p4.00 5d-2.0',
iswitch=3,
dft='PBE'
/
@inputp
pseudotype=3,
file_pseudopw='Te.rel-pbe-dn-rrkjus_psl.0.3.1.UPF',
author='ADC',
lloc=-1,
rcloc=2.1,
which_augfun='PSQ',
rmatch_augfun=1.4,
nlcc=.true.,
rcore=0.9,
tm=.true.
/
6
5S  1  0  2.00  0.00  1.70  2.00  0.0
5S  1  0  0.00  6.30  1.70  2.00  0.0
5P  2  1  4.00  0.00  1.90  2.40  0.0
5P  2  1  0.00  6.30  1.90  2.40  0.0
4D  3  2 10.00  0.00  1.60  1.70  0.0
4D  3  2  0.00  1.30  1.60  1.70  0.0
    </PP_INPUTFILE>
  </PP_INFO>
    <!-- END OF HUMAN READABLE SECTION -->
  <PP_HEADER generated="Generated using 'atomic' code by A. Dal Corso  v.7.3.1" author="ADC" date="19Sep2024" comment="" element="Te" pseudo_type="USPP" relativistic="full" is_ultrasoft="true" is_paw="false" is_coulomb="false" has_so="true" has_wfc="false" has_gipaw="false" paw_as_gipaw="false" core_correction="true" with_metagga_info="false" functional="PBE" z_valence="16.0000000000000" total_psenergy="-212.585183266638" wfc_cutoff="42.7746896975341" rho_cutoff="210.887344992520" l_max="2" l_max_rho="4" l_local="-1" mesh_size="1245" number_of_wfc="5" number_of_proj="10"/>
  <PP_MESH mesh="1245" dx="1.250000000000000E-002" xmin="-7.00000000000000" rmax="100.000000000000" zmesh="52.0000000000000">
    <PP_R>
   1.753619164527916E-05   1.775676978209658E-05   1.798012245031889E-05
   1.820628454925488E-05   1.843529141719269E-05   1.866717883692133E-05
   1.890198304132190E-05   1.913974071902906E-05   1.938048902016366E-05
   1.962426556213759E-05   1.987110843553148E-05   2.012105621004651E-05
   2.037414794053097E-05   2.063042317308263E-05   2.088992195122804E-05
   2.115268482217920E-05   2.141875284316929E-05   2.168816758786793E-05
   2.196097115287707E-05   2.223720616430880E-05   2.251691578444566E-05
   2.280014371848486E-05   2.308693422136732E-05   2.337733210469259E-05
   2.367138274372079E-05   2.396913208446249E-05   2.427062665085797E-05
   2.457591355204662E-05   2.488504048972785E-05   2.519805576561462E-05
   2.551500828898061E-05   2.583594758430244E-05   2.616092379899796E-05
   2.648998771126187E-05   2.682319073799998E-05   2.716058494286311E-05
   2.750222304438220E-05   2.784815842420568E-05   2.819844513544044E-05
   2.855313791109782E-05   2.891229217264562E-05   2.927596403866792E-05
   2.964421033363366E-05   3.001708859677562E-05   3.039465709108110E-05
   3.077697481239547E-05   3.116410149864051E-05   3.155609763914858E-05
   3.195302448411411E-05   3.235494405416425E-05   3.276191915004950E-05
   3.317401336245659E-05   3.359129108194461E-05   3.401381750900617E-05
   3.444165866425519E-05   3.487488139874260E-05   3.531355340440206E-05
   3.575774322462694E-05   3.620752026498034E-05   3.666295480403993E-05
   3.712411800437903E-05   3.759108192368591E-05   3.806391952602301E-05
   3.854270469322767E-05   3.902751223645642E-05   3.951841790787421E-05
   4.001549841249095E-05   4.051883142014681E-05   4.102849557764823E-05
   4.154457052105682E-05   4.206713688813240E-05   4.259627633093302E-05
   4.313207152857314E-05   4.367460620014244E-05   4.422396511778723E-05
   4.478023411995604E-05   4.534350012481217E-05   4.591385114381487E-05
   4.649137629547122E-05   4.707616581926121E-05   4.766831108973766E-05
   4.826790463080382E-05   4.887504013017035E-05   4.948981245399423E-05
   5.011231766170189E-05   5.074265302099849E-05   5.138091702306635E-05
   5.202720939795436E-05   5.268163113016093E-05   5.334428447441324E-05
   5.401527297164448E-05   5.469470146517246E-05   5.538267611708160E-05
   5.607930442481092E-05   5.678469523795090E-05   5.749895877525116E-05
   5.822220664184260E-05   5.895455184667583E-05   5.969610882017902E-05
   6.044699343213808E-05   6.120732300980129E-05   6.197721635621205E-05
   6.275679376877209E-05   6.354617705803812E-05   6.434548956675523E-05
   6.515485618912907E-05   6.597440339034104E-05   6.680425922630872E-05
   6.764455336369478E-05   6.849541710016788E-05   6.935698338491789E-05
   7.022938683942968E-05   7.111276377851792E-05   7.200725223162654E-05
   7.291299196439631E-05   7.383012450050314E-05   7.475879314377173E-05
   7.569914300056699E-05   7.665132100246713E-05   7.761547592922228E-05
   7.859175843200128E-05   7.958032105693148E-05   8.058131826893422E-05
   8.159490647586039E-05   8.262124405292961E-05   8.366049136747632E-05
   8.471281080400781E-05   8.577836678957696E-05   8.685732581947436E-05
   8.794985648324371E-05   8.905612949102395E-05   9.017631770022329E-05
   9.131059614252841E-05   9.245914205125358E-05   9.362213488903391E-05
   9.479975637586638E-05   9.599219051750417E-05   9.719962363420796E-05
   9.842224438985868E-05   9.966024382143702E-05   1.009138153688728E-04
   1.021831549052707E-04   1.034684607675158E-04   1.047699337872639E-04
   1.060877773223225E-04   1.074221972884250E-04   1.087734021914059E-04
   1.101416031597805E-04   1.115270139777335E-04   1.129298511185241E-04
   1.143503337783095E-04   1.157886839103954E-04   1.172451262599161E-04
   1.187198883989520E-04   1.202132007620877E-04   1.217252966824182E-04
   1.232564124280074E-04   1.248067872388055E-04   1.263766633640310E-04
   1.279662861000226E-04   1.295759038285667E-04   1.312057680557082E-04
   1.328561334510487E-04   1.345272578875387E-04   1.362194024817716E-04
   1.379328316347827E-04   1.396678130733633E-04   1.414246178918930E-04
   1.432035205946988E-04   1.450047991389476E-04   1.468287349780762E-04
   1.486756131057706E-04   1.505457221004956E-04   1.524393541705864E-04
   1.543568051999069E-04   1.562983747940810E-04   1.582643663273083E-04
   1.602550869897656E-04   1.622708478356064E-04   1.643119638315644E-04
   1.663787539061661E-04   1.684715409995659E-04   1.705906521140050E-04
   1.727364183649061E-04   1.749091750326120E-04   1.771092616147719E-04
   1.793370218793909E-04   1.815928039185425E-04   1.838769602027597E-04
   1.861898476361095E-04   1.885318276119582E-04   1.909032660694425E-04
   1.933045335506459E-04   1.957360052584975E-04   1.981980611153990E-04
   2.006910858225866E-04   2.032154689202434E-04   2.057716048483640E-04
   2.083598930083875E-04   2.109807378256055E-04   2.136345488123520E-04
   2.163217406319936E-04   2.190427331637188E-04   2.217979515681466E-04
   2.245878263537587E-04   2.274127934441657E-04   2.302732942462235E-04
   2.331697757190019E-04   2.361026904436238E-04   2.390724966939826E-04
   2.420796585083461E-04   2.451246457618667E-04   2.482079342399976E-04
   2.513300057128361E-04   2.544913480104027E-04   2.576924550988621E-04
   2.609338271577102E-04   2.642159706579258E-04   2.675393984411081E-04
   2.709046297996103E-04   2.743121905576780E-04   2.777626131536130E-04
   2.812564367229658E-04   2.847942071827769E-04   2.883764773168792E-04
   2.920038068622682E-04   2.956767625965660E-04   2.993959184265786E-04
   3.031618554779709E-04   3.069751621860697E-04   3.108364343878053E-04
   3.147462754148159E-04   3.187052961877165E-04   3.227141153115569E-04
   3.267733591724824E-04   3.308836620356035E-04   3.350456661441060E-04
   3.392600218195993E-04   3.435273875637314E-04   3.478484301610829E-04
   3.522238247833496E-04   3.566542550948439E-04   3.611404133593156E-04
   3.656830005481203E-04   3.702827264497487E-04   3.749403097807307E-04
   3.796564782979381E-04   3.844319689122967E-04   3.892675278039306E-04
   3.941639105387550E-04   3.991218821865335E-04   4.041422174404237E-04
   4.092257007380226E-04   4.143731263839379E-04   4.195852986738995E-04
   4.248630320204316E-04   4.302071510801077E-04   4.356184908824033E-04
   4.410978969601717E-04   4.466462254817611E-04   4.522643433847905E-04
   4.579531285116131E-04   4.637134697464784E-04   4.695462671544237E-04
   4.754524321219115E-04   4.814328874992336E-04   4.874885677447105E-04
   4.936204190707006E-04   4.998293995914489E-04   5.061164794727945E-04
   5.124826410837593E-04   5.189288791500478E-04   5.254562009094725E-04
   5.320656262693380E-04   5.387581879658042E-04   5.455349317252519E-04
   5.523969164276814E-04   5.593452142721630E-04   5.663809109443709E-04
   5.735051057862252E-04   5.807189119676635E-04   5.880234566605787E-04
   5.954198812149402E-04   6.029093413371325E-04   6.104930072705375E-04
   6.181720639783859E-04   6.259477113289122E-04   6.338211642828340E-04
   6.417936530831938E-04   6.498664234475877E-04   6.580407367628083E-04
   6.663178702819428E-04   6.746991173239431E-04   6.831857874757108E-04
   6.917792067967244E-04   7.004807180262353E-04   7.092916807930772E-04
   7.182134718281081E-04   7.272474851793286E-04   7.363951324297050E-04
   7.456578429177309E-04   7.550370639607657E-04   7.645342610811792E-04
   7.741509182353433E-04   7.838885380455044E-04   7.937486420345682E-04
   8.037327708638446E-04   8.138424845737754E-04   8.240793628276959E-04
   8.344450051586611E-04   8.449410312193734E-04   8.555690810352600E-04
   8.663308152607273E-04   8.772279154386424E-04   8.882620842630793E-04
   8.994350458453650E-04   9.107485459834794E-04   9.222043524348360E-04
   9.338042551924995E-04   9.455500667648766E-04   9.574436224589220E-04
   9.694867806669111E-04   9.816814231568157E-04   9.940294553663349E-04
   1.006532806700623E-03   1.019193430833765E-03   1.032013306014041E-03
   1.044994435373029E-03   1.058138847238601E-03   1.071448595451854E-03
   1.084925759688026E-03   1.098572445781448E-03   1.112390786054586E-03
   1.126382939651222E-03   1.140551092873822E-03   1.154897459525153E-03
   1.169424281254192E-03   1.184133827906389E-03   1.199028397878336E-03
   1.214110318476892E-03   1.229381946282838E-03   1.244845667519088E-03
   1.260503898423545E-03   1.276359085626647E-03   1.292413706533649E-03
   1.308670269711735E-03   1.325131315281973E-03   1.341799415316224E-03
   1.358677174239031E-03   1.375767229234562E-03   1.393072250658682E-03
   1.410594942456195E-03   1.428338042583344E-03   1.446304323435624E-03
   1.464496592280968E-03   1.482917691698398E-03   1.501570500022176E-03
   1.520457931791552E-03   1.539582938206165E-03   1.558948507587178E-03
   1.578557665844208E-03   1.598413476948126E-03   1.618519043409815E-03
   1.638877506764940E-03   1.659492048064817E-03   1.680365888373469E-03
   1.701502289270910E-03   1.722904553362783E-03   1.744576024796395E-03
   1.766520089783248E-03   1.788740177128144E-03   1.811239758764936E-03
   1.834022350299032E-03   1.857091511556709E-03   1.880450847141347E-03
   1.904104006996660E-03   1.928054686976995E-03   1.952306629424829E-03
   1.976863623755508E-03   2.001729507049358E-03   2.026908164651237E-03
   2.052403530777619E-03   2.078219589131333E-03   2.104360373524019E-03
   2.130829968506423E-03   2.157632510006610E-03   2.184772185976226E-03
   2.212253237044854E-03   2.240079957182635E-03   2.268256694371204E-03
   2.296787851283069E-03   2.325677885969552E-03   2.354931312557345E-03
   2.384552701953871E-03   2.414546682561487E-03   2.444917941000685E-03
   2.475671222842389E-03   2.506811333349456E-03   2.538343138227505E-03
   2.570271564385202E-03   2.602601600704091E-03   2.635338298818124E-03
   2.668486773902986E-03   2.702052205475349E-03   2.736039838202186E-03
   2.770454982720255E-03   2.805303016465912E-03   2.840589384515324E-03
   2.876319600435291E-03   2.912499247144744E-03   2.949133977787086E-03
   2.986229516613520E-03   3.023791659877455E-03   3.061826276740199E-03
   3.100339310188017E-03   3.139336777960739E-03   3.178824773492049E-03
   3.218809466861588E-03   3.259297105759042E-03   3.300294016460363E-03
   3.341806604816253E-03   3.383841357253106E-03   3.426404841786510E-03
   3.469503709047517E-03   3.513144693321822E-03   3.557334613602005E-03
   3.602080374653020E-03   3.647388968091064E-03   3.693267473476043E-03
   3.739723059417763E-03   3.786762984696039E-03   3.834394599394907E-03
   3.882625346051066E-03   3.931462760816810E-03   3.980914474637554E-03
   4.030988214444189E-03   4.081691804360444E-03   4.133033166925397E-03
   4.185020324331404E-03   4.237661399677577E-03   4.290964618239035E-03
   4.344938308752133E-03   4.399590904715817E-03   4.454930945709402E-03
   4.510967078726881E-03   4.567708059528041E-03   4.625162754006581E-03
   4.683340139575400E-03   4.742249306569358E-03   4.801899459665649E-03
   4.862299919322048E-03   4.923460123233271E-03   4.985389627805608E-03
   5.048098109650142E-03   5.111595367094745E-03   5.175891321715074E-03
   5.240996019884859E-03   5.306919634345639E-03   5.373672465796297E-03
   5.441264944502559E-03   5.509707631926732E-03   5.579011222377988E-03
   5.649186544683326E-03   5.720244563879629E-03   5.792196382926967E-03
   5.865053244443448E-03   5.938826532461921E-03   6.013527774208729E-03
   6.089168641904873E-03   6.165760954589825E-03   6.243316679968264E-03
   6.321847936280081E-03   6.401366994193840E-03   6.481886278724125E-03
   6.563418371172960E-03   6.645976011095664E-03   6.729572098291451E-03
   6.814219694819016E-03   6.899932027037535E-03   6.986722487673297E-03
   7.074604637912352E-03   7.163592209519482E-03   7.253699106983790E-03
   7.344939409691329E-03   7.437327374125029E-03   7.530877436092288E-03
   7.625604212980633E-03   7.721522506041669E-03   7.818647302703834E-03
   7.916993778914206E-03   8.016577301509776E-03   8.117413430618569E-03
   8.219517922090901E-03   8.322906729961298E-03   8.427596008941338E-03
   8.533602116943843E-03   8.640941617638878E-03   8.749631283041803E-03
   8.859688096133963E-03   8.971129253516320E-03   9.083972168096437E-03
   9.198234471809310E-03   9.313934018372359E-03   9.431088886075122E-03
   9.549717380604035E-03   9.669838037902711E-03   9.791469627068256E-03
   9.914631153283929E-03   1.003934186078878E-02   1.016562123588457E-02
   1.029348900998058E-02   1.042296516267668E-02   1.055406992488513E-02
   1.068682378199176E-02   1.082124747705685E-02   1.095736201405621E-02
   1.109518866116321E-02   1.123474895407185E-02   1.137606469936184E-02
   1.151915797790588E-02   1.166405114831987E-02   1.181076685045650E-02
   1.195932800894270E-02   1.210975783676174E-02   1.226207983888026E-02
   1.241631781592100E-02   1.257249586788168E-02   1.273063839790066E-02
   1.289077011606999E-02   1.305291604329644E-02   1.321710151521100E-02
   1.338335218612773E-02   1.355169403305219E-02   1.372215335974044E-02
   1.389475680080909E-02   1.406953132589696E-02   1.424650424387919E-02
   1.442570320713427E-02   1.460715621586479E-02   1.479089162247252E-02
   1.497693813598856E-02   1.516532482655917E-02   1.535608112998802E-02
   1.554923685233563E-02   1.574482217457659E-02   1.594286765731539E-02
   1.614340424556168E-02   1.634646327356536E-02   1.655207646971266E-02
   1.676027596148382E-02   1.697109428047299E-02   1.718456436747146E-02
   1.740071957761461E-02   1.761959368559381E-02   1.784122089093372E-02
   1.806563582333607E-02   1.829287354809066E-02   1.852296957155427E-02
   1.875595984669871E-02   1.899188077872850E-02   1.923076923076923E-02
   1.947266252962759E-02   1.971759847162364E-02   1.996561532849665E-02
   2.021675185338509E-02   2.047104728688191E-02   2.072854136316599E-02
   2.098927431621062E-02   2.125328688607016E-02   2.152062032524580E-02
   2.179131640513127E-02   2.206541742253985E-02   2.234296620631315E-02
   2.262400612401329E-02   2.290858108869921E-02   2.319673556578809E-02
   2.348851458000327E-02   2.378396372240933E-02   2.408312915753587E-02
   2.438605763059078E-02   2.469279647476426E-02   2.500339361862483E-02
   2.531789759360812E-02   2.563635754160007E-02   2.595882322261546E-02
   2.628534502257301E-02   2.661597396116830E-02   2.695076169984565E-02
   2.728976054987035E-02   2.763302348050241E-02   2.798060412727310E-02
   2.833255680036569E-02   2.868893649310136E-02   2.904979889053218E-02
   2.941520037814192E-02   2.978519805065640E-02   3.015984972096479E-02
   3.053921392915277E-02   3.092334995164969E-02   3.131231781049060E-02
   3.170617828269477E-02   3.210499290976237E-02   3.250882400729023E-02
   3.291773467470895E-02   3.333178880514224E-02   3.375105109539035E-02
   3.417558705603921E-02   3.460546302169633E-02   3.504074616135596E-02
   3.548150448889425E-02   3.592780687369658E-02   3.637972305141866E-02
   3.683732363488263E-02   3.730068012511067E-02   3.776986492249709E-02
   3.824495133812100E-02   3.872601360520148E-02   3.921312689069646E-02
   3.970636730704784E-02   4.020581192407417E-02   4.071153878101298E-02
   4.122362689871461E-02   4.174215629198929E-02   4.226720798210967E-02
   4.279886400947056E-02   4.333720744640786E-02   4.388232241017893E-02
   4.443429407610586E-02   4.499320869088446E-02   4.555915358606041E-02
   4.613221719167496E-02   4.671248905008248E-02   4.730005982994136E-02
   4.789502134038139E-02   4.849746654534903E-02   4.910748957813321E-02
   4.972518575607398E-02   5.035065159545581E-02   5.098398482658861E-02
   5.162528440907831E-02   5.227465054728933E-02   5.293218470600206E-02
   5.359798962626638E-02   5.427216934145576E-02   5.495482919352242E-02
   5.564607584945695E-02   5.634601731795586E-02   5.705476296629747E-02
   5.777242353743139E-02   5.849911116728203E-02   5.923493940226983E-02
   5.998002321705376E-02   6.073447903249556E-02   6.149842473385143E-02
   6.227197968919160E-02   6.305526476805141E-02   6.384840236031829E-02
   6.465151639535444E-02   6.546473236136188E-02   6.628817732498994E-02
   6.712197995118926E-02   6.796627052331680E-02   6.882118096349193E-02
   6.968684485321040E-02   7.056339745421628E-02   7.145097572963661E-02
   7.234971836538297E-02   7.325976579182043E-02   7.418126020571102E-02
   7.511434559243182E-02   7.605916774847264E-02   7.701587430421787E-02
   7.798461474701300E-02   7.896554044452329E-02   7.995880466838481E-02
   8.096456261815307E-02   8.198297144555428E-02   8.301419027903932E-02
   8.405838024864917E-02   8.511570451119112E-02   8.618632827573201E-02
   8.727041882941361E-02   8.836814556359020E-02   8.947968000029748E-02
   9.060519581905278E-02   9.174486888399236E-02   9.289887727135161E-02
   9.406740129728858E-02   9.525062354605987E-02   9.644872889854929E-02
   9.766190456115541E-02   9.889034009504406E-02   1.001342274457664E-01
   1.013937609732517E-01   1.026691374821765E-01   1.039605562527147E-01
   1.052682190716770E-01   1.065923302640389E-01   1.079330967248684E-01
   1.092907279516528E-01   1.106654360770333E-01   1.120574359019515E-01
   1.134669449292119E-01   1.148941833974677E-01   1.163393743156337E-01
   1.178027434977305E-01   1.192845195981706E-01   1.207849341474840E-01
   1.223042215884967E-01   1.238426193129628E-01   1.254003676986560E-01
   1.269777101469314E-01   1.285748931207552E-01   1.301921661832168E-01
   1.318297820365227E-01   1.334879965614814E-01   1.351670688574866E-01
   1.368672612829999E-01   1.385888394965474E-01   1.403320724982276E-01
   1.420972326717433E-01   1.438845958269632E-01   1.456944412430163E-01
   1.475270517119313E-01   1.493827135828227E-01   1.512617168066325E-01
   1.531643549814381E-01   1.550909253983245E-01   1.570417290878394E-01
   1.590170708670283E-01   1.610172593870628E-01   1.630426071814689E-01
   1.650934307149595E-01   1.671700504328846E-01   1.692727908113003E-01
   1.714019804076680E-01   1.735579519121948E-01   1.757410421998140E-01
   1.779515923828248E-01   1.801899478641911E-01   1.824564583915101E-01
   1.847514781116637E-01   1.870753656261517E-01   1.894284840471266E-01
   1.918112010541294E-01   1.942238889515395E-01   1.966669247267502E-01
   1.991406901090711E-01   2.016455716293764E-01   2.041819606805002E-01
   2.067502535783914E-01   2.093508516240414E-01   2.119841611661847E-01
   2.146505936647955E-01   2.173505657553767E-01   2.200844993140600E-01
   2.228528215235270E-01   2.256559649397541E-01   2.284943675596038E-01
   2.313684728892604E-01   2.342787300135283E-01   2.372255936660051E-01
   2.402095243001310E-01   2.432309881611389E-01   2.462904573589046E-01
   2.493884099417141E-01   2.525253299709621E-01   2.557017075967844E-01
   2.589180391346483E-01   2.621748271428993E-01   2.654725805012903E-01
   2.688118144904932E-01   2.721930508726117E-01   2.756168179727105E-01
   2.790836507613639E-01   2.825940909382489E-01   2.861486870167856E-01
   2.897479944098422E-01   2.933925755165227E-01   2.970829998100389E-01
   3.008198439266956E-01   3.046036917559891E-01   3.084351345318399E-01
   3.123147709249781E-01   3.162432071364820E-01   3.202210569925028E-01
   3.242489420401740E-01   3.283274916447281E-01   3.324573430878397E-01
   3.366391416671979E-01   3.408735407973393E-01   3.451612021117434E-01
   3.495027955662128E-01   3.538989995435591E-01   3.583505009595965E-01
   3.628579953704785E-01   3.674221870813782E-01   3.720437892565350E-01
   3.767235240306927E-01   3.814621226219295E-01   3.862603254459167E-01
   3.911188822316082E-01   3.960385521383853E-01   4.010201038746815E-01
   4.060643158180890E-01   4.111719761369874E-01   4.163438829136937E-01
   4.215808442691629E-01   4.268836784892628E-01   4.322532141526274E-01
   4.376902902601294E-01   4.431957563659731E-01   4.487704727104370E-01
   4.544153103542933E-01   4.601311513149068E-01   4.659188887040573E-01
   4.717794268674880E-01   4.777136815262086E-01   4.837225799195846E-01
   4.898070609502134E-01   4.959680753306358E-01   5.022065857318845E-01
   5.085235669339000E-01   5.149200059778491E-01   5.213969023203444E-01
   5.279552679896173E-01   5.345961277436480E-01   5.413205192302818E-01
   5.481294931493715E-01   5.550241134169430E-01   5.620054573314411E-01
   5.690746157420573E-01   5.762326932191736E-01   5.834808082269608E-01
   5.908200932981333E-01   5.982516952109166E-01   6.057767751682301E-01
   6.133965089791250E-01   6.211120872425139E-01   6.289247155331956E-01
   6.368356145902367E-01   6.448460205077109E-01   6.529571849278375E-01
   6.611703752365621E-01   6.694868747615779E-01   6.779079829728565E-01
   6.864350156856905E-01   6.950693052662872E-01   7.038122008399623E-01
   7.126650685019345E-01   7.216292915307885E-01   7.307062706046116E-01
   7.398974240198488E-01   7.492041879129234E-01   7.586280164846261E-01
   7.681703822273449E-01   7.778327761551430E-01   7.876167080367270E-01
   7.975237066313619E-01   8.075553199277310E-01   8.177131153858228E-01
   8.279986801818454E-01   8.384136214562213E-01   8.489595665647170E-01
   8.596381633327088E-01   8.704510803126685E-01   8.814000070448752E-01
   8.924866543214034E-01   9.037127544534490E-01   9.150800615419943E-01
   9.265903517519003E-01   9.382454235894320E-01   9.500470981832728E-01
   9.619972195690926E-01   9.740976549776666E-01   9.863502951266482E-01
   9.987570545159902E-01   1.011319871727086E+00   1.024040709725687E+00
   1.036921556168607E+00   1.049964423714312E+00   1.063171350337394E+00
   1.076544399647003E+00   1.090085661209305E+00   1.103797250873966E+00
   1.117681311104769E+00   1.131740011314374E+00   1.145975548203288E+00
   1.160390146103117E+00   1.174986057324103E+00   1.189765562507075E+00
   1.204730970979787E+00   1.219884621117757E+00   1.235228880709653E+00
   1.250766147327250E+00   1.266498848700071E+00   1.282429443094716E+00
   1.298560419698964E+00   1.314894299010735E+00   1.331433633231897E+00
   1.348181006667074E+00   1.365139036127441E+00   1.382310371339597E+00
   1.399697695359611E+00   1.417303724992228E+00   1.435131211215402E+00
   1.453182939610129E+00   1.471461730795690E+00   1.489970440870403E+00
   1.508711961857868E+00   1.527689222158872E+00   1.546905187008948E+00
   1.566362858941695E+00   1.586065278257945E+00   1.606015523500794E+00
   1.626216711936654E+00   1.646672000042320E+00   1.667384583998171E+00
   1.688357700187595E+00   1.709594625702660E+00   1.731098678856189E+00
   1.752873219700239E+00   1.774921650551113E+00   1.797247416520995E+00
   1.819854006056234E+00   1.842744951482440E+00   1.865923829556412E+00
   1.889394262025001E+00   1.913159916191038E+00   1.937224505486329E+00
   1.961591790051917E+00   1.986265577325593E+00   2.011249722636812E+00
   2.036548129809116E+00   2.062164751770088E+00   2.088103591169031E+00
   2.114368701002377E+00   2.140964185246968E+00   2.167894199501333E+00
   2.195162951634981E+00   2.222774702445917E+00   2.250733766326383E+00
   2.279044511936987E+00   2.307711362889338E+00   2.336738798437211E+00
   2.366131354176472E+00   2.395893622753759E+00   2.426030254584080E+00
   2.456545958577482E+00   2.487445502874788E+00   2.518733715592665E+00
   2.550415485578013E+00   2.582495763171837E+00   2.614979560982791E+00
   2.647871954670360E+00   2.681178083737984E+00   2.714903152336096E+00
   2.749052430075269E+00   2.783631252849637E+00   2.818645023670600E+00
   2.854099213511089E+00   2.889999362160403E+00   2.926351079089800E+00
   2.963160044329018E+00   3.000432009353752E+00   3.038172797984374E+00
   3.076388307295898E+00   3.115084508539391E+00   3.154267448075038E+00
   3.193943248316848E+00   3.234118108689335E+00   3.274798306596176E+00
   3.315990198401045E+00   3.357700220420855E+00   3.399934889931393E+00
   3.442700806185705E+00   3.486004651445219E+00   3.529853192023846E+00
   3.574253279345275E+00   3.619211851013471E+00   3.664735931896731E+00
   3.710832635225319E+00   3.757509163702903E+00   3.804772810632033E+00
   3.852630961053689E+00   3.901091092901248E+00   3.950160778168911E+00
   3.999847684094820E+00   4.050159574359130E+00   4.101104310297040E+00
   4.152689852127194E+00   4.204924260195465E+00   4.257815696234369E+00
   4.311372424638409E+00   4.365602813755348E+00   4.420515337193824E+00
   4.476118575147352E+00   4.532421215734973E+00   4.589432056358843E+00
   4.647160005078784E+00   4.705614082004238E+00   4.764803420703660E+00
   4.824737269631627E+00   4.885424993573986E+00   4.946876075111057E+00
   5.009100116099361E+00   5.072106839171909E+00   5.135906089257348E+00
   5.200507835118326E+00   5.265922170909049E+00   5.332159317752576E+00
   5.399229625337876E+00   5.467143573536941E+00   5.535911774042372E+00
   5.605544972025388E+00   5.676054047814852E+00   5.747450018597319E+00
   5.819744040138459E+00   5.892947408526242E+00   5.967071561935892E+00
   6.042128082417197E+00   6.118128697704194E+00   6.195085283047626E+00
   6.273009863070545E+00   6.351914613647095E+00   6.431811863805097E+00
   6.512714097652453E+00   6.594633956327777E+00   6.677584239975674E+00
   6.761577909746707E+00   6.846628089822675E+00   6.932748069467264E+00
   7.019951305102479E+00   7.108251422411332E+00   7.197662218466773E+00
   7.288197663887606E+00   7.379871905021389E+00   7.472699266154785E+00
   7.566694251751855E+00   7.661871548720307E+00   7.758246028706444E+00
   7.855832750418856E+00   7.954646961981323E+00   8.054704103315467E+00
   8.156019808553165E+00   8.258609908479498E+00   8.362490433006320E+00
   8.467677613676901E+00   8.574187886202260E+00   8.682037893029145E+00
   8.791244485940556E+00   8.901824728688839E+00   9.013795899661865E+00
   9.127175494582941E+00   9.241981229244411E+00   9.358231042275907E+00
   9.475943097947246E+00   9.595135789006578E+00   9.715827739554413E+00
   9.838037807953542E+00   9.961785089775807E+00   1.008708892078578E+01
   1.021396887996194E+01   1.034244479255610E+01   1.047253673319095E+01
   1.060426502899690E+01   1.073765026278819E+01   1.087271327627895E+01
   1.100947517333984E+01   1.114795732329551E+01   1.128818136426363E+01
   1.143016920653593E+01   1.157394303600158E+01   1.171952531761400E+01
   1.186693879890084E+01   1.201620651351848E+01   1.216735178485104E+01
   1.232039822965463E+01   1.247536976174767E+01   1.263229059574730E+01
   1.279118525085311E+01   1.295207855467826E+01   1.311499564712876E+01
   1.327996198433181E+01   1.344700334261319E+01   1.361614582252499E+01
   1.378741585292384E+01   1.396084019510041E+01   1.413644594696104E+01
   1.431426054726167E+01   1.449431177989541E+01   1.467662777823369E+01
   1.486123702952211E+01   1.504816837933186E+01   1.523745103606658E+01
   1.542911457552652E+01   1.562318894552969E+01   1.581970447059120E+01
   1.601869185666171E+01   1.622018219592507E+01   1.642420697165676E+01
   1.663079806314311E+01   1.683998775066242E+01   1.705180872052902E+01
   1.726629407020035E+01   1.748347731344870E+01   1.770339238559771E+01
   1.792607364882478E+01   1.815155589753038E+01   1.837987436377457E+01
   1.861106472278224E+01   1.884516309851739E+01   1.908220606932743E+01
   1.932223067365888E+01   1.956527441584445E+01   1.981137527196334E+01