<UPF version="2.0.1">
  <PP_INFO>
    Generated using "atomic" code by A. Dal Corso  v.7.3.1
    Author: ADC
    Generation date: 19Sep2024
    Pseudopotential type: USPP
    Element: Fe
    Functional: PBE
    Suggested minimum cutoff for wavefunctions:  64. Ry
    Suggested minimum cutoff for charge density: 782. Ry
    The Pseudo was generated with a Scalar-Relativistic Calculation
    Local Potential according to Troullier-Martins recipe, cutoff radius:   1.8000
    Valence configuration: 
    nl pn  l   occ       Rcut    Rcut US       E pseu
    3S  1  0  2.00      1.100      1.300    -6.910119
    4S  2  0  2.00      0.800      1.400    -0.388933
    3P  2  1  6.00      1.000      1.300    -4.413015
    4P  3  1  0.00      1.000      1.600    -0.097407
    3D  3  2  6.00      1.400      2.000    -0.551557
    Generation configuration:
    3S  1  0  2.00      1.100      1.300    -6.910162
    4S  2  0  2.00      0.800      1.400    -0.388938
    3P  2  1  6.00      1.000      1.300    -4.413055
    4P  3  1  0.00      1.000      1.600    -0.097411
    3D  3  2  6.00      1.400      2.000    -0.551589
    3D  3  2  0.00      1.400      2.000    -0.400000
    Pseudization used: troullier-martins
    <PP_INPUTFILE>
@input
title='Fe',
zed=26.,
rel=1,
config='[Ar] 4s2.0 3d6.0 4p0',
iswitch=3,
dft='PBE'
/
@inputp
pseudotype=3,
file_pseudopw='Fe.pbe-spn-rrkjus_psl.0.2.1.UPF',
author='ADC',
lloc=-2,
rcloc=1.8,
which_augfun='PSQ',
rmatch_augfun=0.68,
nlcc=.true.,
new_core_ps=.true.,
rcore=0.6,
tm=.true.
/
6
3S  1  0  2.00  0.00  1.10  1.30  0.0
4S  2  0  2.00  0.00  0.80  1.40  0.0
3P  2  1  6.00  0.00  1.00  1.30  0.0
4P  3  1  0.00  0.00  1.00  1.60  0.0
3D  3  2  6.00  0.00  1.40  2.00  0.0
3D  3  2  0.00 -0.40  1.40  2.00  0.0
    </PP_INPUTFILE>
  </PP_INFO>
    <!-- END OF HUMAN READABLE SECTION -->
  <PP_HEADER generated="Generated using 'atomic' code by A. Dal Corso  v.7.3.1" author="ADC" date="19Sep2024" comment="" element="Fe" pseudo_type="USPP" relativistic="scalar" is_ultrasoft="true" is_paw="false" is_coulomb="false" has_so="false" has_wfc="false" has_gipaw="false" paw_as_gipaw="false" core_correction="true" with_metagga_info="false" functional="PBE" z_valence="16.0000000000000" total_psenergy="-253.707958979383" wfc_cutoff="63.9261410496170" rho_cutoff="781.736943368579" l_max="2" l_max_rho="4" l_local="-2" mesh_size="1191" number_of_wfc="5" number_of_proj="6"/>
  <PP_MESH mesh="1191" dx="1.250000000000000E-002" xmin="-7.00000000000000" rmax="100.000000000000" zmesh="26.0000000000000">
    <PP_R>
   3.507238329055831E-05   3.551353956419316E-05   3.596024490063778E-05
   3.641256909850977E-05   3.687058283438538E-05   3.733435767384265E-05
   3.780396608264379E-05   3.827948143805812E-05   3.876097804032732E-05
   3.924853112427518E-05   3.974221687106296E-05   4.024211242009302E-05
   4.074829588106193E-05   4.126084634616526E-05   4.177984390245608E-05
   4.230536964435839E-05   4.283750568633858E-05   4.337633517573586E-05
   4.392194230575413E-05   4.447441232861761E-05   4.503383156889132E-05
   4.560028743696972E-05   4.617386844273465E-05   4.675466420938518E-05
   4.734276548744158E-05   4.793826416892498E-05   4.854125330171594E-05
   4.915182710409325E-05   4.977008097945569E-05   5.039611153122924E-05
   5.103001657796121E-05   5.167189516860488E-05   5.232184759799592E-05
   5.297997542252373E-05   5.364638147599995E-05   5.432116988572622E-05
   5.500444608876440E-05   5.569631684841137E-05   5.639689027088089E-05
   5.710627582219565E-05   5.782458434529124E-05   5.855192807733583E-05
   5.928842066726732E-05   6.003417719355124E-05   6.078931418216220E-05
   6.155394962479094E-05   6.232820299728103E-05   6.311219527829716E-05
   6.390604896822823E-05   6.470988810832850E-05   6.552383830009900E-05
   6.634802672491317E-05   6.718258216388922E-05   6.802763501801234E-05
   6.888331732851038E-05   6.974976279748520E-05   7.062710680880412E-05
   7.151548644925388E-05   7.241504052996067E-05   7.332590960807986E-05
   7.424823600875805E-05   7.518216384737181E-05   7.612783905204602E-05
   7.708540938645534E-05   7.805502447291284E-05   7.903683581574842E-05
   8.003099682498190E-05   8.103766284029362E-05   8.205699115529647E-05
   8.308914104211363E-05   8.413427377626481E-05   8.519255266186604E-05
   8.626414305714629E-05   8.734921240028488E-05   8.844793023557446E-05
   8.956046823991207E-05   9.068700024962434E-05   9.182770228762974E-05
   9.298275259094244E-05   9.415233163852242E-05   9.533662217947532E-05
   9.653580926160763E-05   9.775008026034071E-05   9.897962490798846E-05
   1.002246353234038E-04   1.014853060419970E-04   1.027618340461327E-04
   1.040544187959087E-04   1.053632622603219E-04   1.066885689488265E-04
   1.080305459432890E-04   1.093894029303449E-04   1.107653522341632E-04
   1.121586088496218E-04   1.135693904759018E-04   1.149979175505023E-04
   1.164444132836852E-04   1.179091036933517E-04   1.193922176403580E-04
   1.208939868642762E-04   1.224146460196026E-04   1.239544327124241E-04
   1.255135875375442E-04   1.270923541160762E-04   1.286909791335105E-04
   1.303097123782581E-04   1.319488067806821E-04   1.336085184526174E-04
   1.352891067273896E-04   1.369908342003358E-04   1.387139667698358E-04
   1.404587736788594E-04   1.422255275570358E-04   1.440145044632531E-04
   1.458259839287926E-04   1.476602490010063E-04   1.495175862875435E-04
   1.513982860011340E-04   1.533026420049343E-04   1.552309518584446E-04
   1.571835168640026E-04   1.591606421138630E-04   1.611626365378684E-04
   1.631898129517208E-04   1.652424881058592E-04   1.673209827349526E-04
   1.694256216080156E-04   1.715567335791539E-04   1.737146516389487E-04
   1.758997129664874E-04   1.781122589820479E-04   1.803526354004466E-04
   1.826211922850568E-04   1.849182841025072E-04   1.872442697780678E-04
   1.895995127517328E-04   1.919843810350083E-04   1.943992472684159E-04
   1.968444887797174E-04   1.993204876428740E-04   2.018276307377456E-04
   2.043663098105414E-04   2.069369215350316E-04   2.095398675745279E-04
   2.121755546446451E-04   2.148443945768500E-04   2.175468043828118E-04
   2.202832063195610E-04   2.230540279554670E-04   2.258597022370482E-04
   2.287006675566190E-04   2.315773678207907E-04   2.344902525198322E-04
   2.374397767979039E-04   2.404264015241754E-04   2.434505933648364E-04
   2.465128248560147E-04   2.496135744776110E-04   2.527533267280620E-04
   2.559325722000452E-04   2.591518076571333E-04   2.624115361114164E-04
   2.657122669020974E-04   2.690545157750773E-04   2.724388049635433E-04
   2.758656632695653E-04   2.793356261467266E-04   2.828492357837860E-04
   2.864070411893976E-04   2.900095982778953E-04   2.936574699561523E-04
   2.973512262115412E-04   3.010914442009913E-04   3.048787083411728E-04
   3.087136103998139E-04   3.125967495881619E-04   3.165287326546166E-04
   3.205101739795311E-04   3.245416956712127E-04   3.286239276631287E-04
   3.327575078123321E-04   3.369430819991319E-04   3.411813042280099E-04
   3.454728367298122E-04   3.498183500652240E-04   3.542185232295438E-04
   3.586740437587818E-04   3.631856078370851E-04   3.677539204055194E-04
   3.723796952722190E-04   3.770636552239164E-04   3.818065321388851E-04
   3.866090671012918E-04   3.914720105169950E-04   3.963961222307981E-04
   4.013821716451733E-04   4.064309378404867E-04   4.115432096967280E-04
   4.167197860167751E-04   4.219614756512111E-04   4.272690976247041E-04
   4.326434812639871E-04   4.380854663274376E-04   4.435959031362932E-04
   4.491756527075174E-04   4.548255868883315E-04   4.605465884924470E-04
   4.663395514380038E-04   4.722053808872475E-04   4.781449933879651E-04
   4.841593170166923E-04   4.902492915237334E-04   4.964158684799951E-04
   5.026600114256723E-04   5.089826960208054E-04   5.153849101977242E-04
   5.218676543154205E-04   5.284319413158517E-04   5.350787968822162E-04
   5.418092595992206E-04   5.486243811153560E-04   5.555252263072261E-04
   5.625128734459316E-04   5.695884143655538E-04   5.767529546337584E-04
   5.840076137245364E-04   5.913535251931320E-04   5.987918368531573E-04
   6.063237109559418E-04   6.139503243721393E-04   6.216728687756106E-04
   6.294925508296318E-04   6.374105923754329E-04   6.454282306231138E-04
   6.535467183449647E-04   6.617673240712070E-04   6.700913322882121E-04
   6.785200436391985E-04   6.870547751274629E-04   6.956968603221658E-04
   7.044476495666992E-04   7.133085101896879E-04   7.222808267186311E-04
   7.313660010962406E-04   7.405654528994973E-04   7.498806195614613E-04
   7.593129565958762E-04   7.688639378245934E-04   7.785350556078612E-04
   7.883278210775099E-04   7.982437643730670E-04   8.082844348808473E-04
   8.184514014760452E-04   8.287462527678759E-04   8.391705973477989E-04
   8.497260640408632E-04   8.604143021602155E-04   8.712369817648066E-04
   8.821957939203434E-04   8.932924509635221E-04   9.045286867695810E-04
   9.159062570232261E-04   9.274269394929567E-04   9.390925343088475E-04
   9.509048642438230E-04   9.628657749984672E-04   9.749771354894209E-04
   9.872408381414012E-04   9.996587991828979E-04   1.012232958945589E-03
   1.024965282167519E-03   1.037857758300096E-03   1.050912401818945E-03
   1.064131252538676E-03   1.077516375931608E-03   1.091069863450504E-03
   1.104793832855363E-03   1.118690428544326E-03   1.132761821888742E-03
   1.147010211572450E-03   1.161437823935327E-03   1.176046913321157E-03
   1.190839762429880E-03   1.205818682674265E-03   1.220986014541075E-03
   1.236344127956772E-03   1.251895422657824E-03   1.267642328565668E-03
   1.283587306166388E-03   1.299732846895175E-03   1.316081473525617E-03
   1.332635740563886E-03   1.349398234647886E-03   1.366371574951422E-03
   1.383558413593449E-03   1.400961436052471E-03   1.418583361586154E-03
   1.436426943656216E-03   1.454494970358657E-03   1.472790264859410E-03
   1.491315685835462E-03   1.510074127921531E-03   1.529068522162358E-03
   1.548301836470687E-03   1.567777076091009E-03   1.587497284069136E-03
   1.607465541727689E-03   1.627684969147551E-03   1.648158725655392E-03
   1.668890010317322E-03   1.689882062438747E-03   1.711138162070520E-03
   1.732661630521455E-03   1.754455830877285E-03   1.776524168526159E-03
   1.798870091690730E-03   1.821497091966959E-03   1.844408704869672E-03
   1.867608510384999E-03   1.891100133529753E-03   1.914887244917844E-03
   1.938973561333822E-03   1.963362846313631E-03   1.988058910732670E-03
   2.013065613401245E-03   2.038386861667531E-03   2.064026612028082E-03
   2.089988870746057E-03   2.116277694477202E-03   2.142897190903708E-03
   2.169851519376052E-03   2.197144891562896E-03   2.224781572109172E-03
   2.252765879302445E-03   2.281102185747643E-03   2.309794919050305E-03
   2.338848562508384E-03   2.368267655812779E-03   2.398056795756671E-03
   2.428220636953784E-03   2.458763892565676E-03   2.489691335038175E-03
   2.521007796847091E-03   2.552718171253294E-03   2.584827413067298E-03
   2.617340539423469E-03   2.650262630563946E-03   2.683598830632449E-03
   2.717354348478062E-03   2.751534458469124E-03   2.786144501317364E-03
   2.821189884912390E-03   2.856676085166689E-03   2.892608646871247E-03
   2.928993184561936E-03   2.965835383396797E-03   3.003141000044353E-03
   3.040915863583103E-03   3.079165876412330E-03   3.117897015174355E-03
   3.157115331688415E-03   3.196826953896253E-03   3.237038086819631E-03
   3.277755013529880E-03   3.318984096129634E-03   3.360731776746938E-03
   3.403004578541820E-03   3.445809106725566E-03   3.489152049592791E-03
   3.533040179566496E-03   3.577480354256288E-03   3.622479517529873E-03
   3.668044700598064E-03   3.714183023113418E-03   3.760901694282694E-03
   3.808208013993319E-03   3.856109373953990E-03   3.904613258849657E-03
   3.953727247511017E-03   4.003459014098717E-03   4.053816329302474E-03
   4.104807061555239E-03   4.156439178262666E-03   4.208720747048038E-03
   4.261659937012845E-03   4.315265020013221E-03   4.369544371952453E-03
   4.424506474089708E-03   4.480159914365270E-03   4.536513388742407E-03
   4.593575702566139E-03   4.651355771939104E-03   4.709862625114690E-03
   4.769105403907741E-03   4.829093365122974E-03   4.889835882001369E-03
   4.951342445684778E-03   5.013622666698912E-03   5.076686276455010E-03
   5.140543128770404E-03   5.205203201408181E-03   5.270676597636249E-03
   5.336973547805973E-03   5.404104410950699E-03   5.472079676404372E-03
   5.540909965440511E-03   5.610606032931824E-03   5.681178769030648E-03
   5.752639200870583E-03   5.824998494289487E-03   5.898267955574172E-03
   5.972459033227039E-03   6.047583319754911E-03   6.123652553480398E-03
   6.200678620376034E-03   6.278673555921477E-03   6.357649546984099E-03
   6.437618933723175E-03   6.518594211518084E-03   6.600588032920725E-03
   6.683613209632506E-03   6.767682714506212E-03   6.852809683573019E-03
   6.939007418095033E-03   7.026289386643645E-03   7.114669227204010E-03
   7.204160749306040E-03   7.294777936182128E-03   7.386534946952085E-03
   7.479446118835525E-03   7.573525969392079E-03   7.668789198789814E-03
   7.765250692102133E-03   7.862925521633620E-03   7.961828949275107E-03
   8.061976428888378E-03   8.163383608720888E-03   8.266066333850795E-03
   8.370040648662808E-03   8.475322799355154E-03   8.581929236478070E-03
   8.689876617504266E-03   8.799181809431634E-03   8.909861891418803E-03
   9.021934157453762E-03   9.135416119056081E-03   9.250325508013161E-03
   9.366680279150800E-03   9.484498613138716E-03   9.603798919331297E-03
   9.724599838644096E-03   9.846920246466542E-03   9.970779255611215E-03
   1.009619621930028E-02   1.022319073418949E-02   1.035178264343015E-02
   1.048199203976972E-02   1.061383926869128E-02   1.074734493159259E-02
   1.088252988900512E-02   1.101941526385346E-02   1.115802244475598E-02
   1.129837308936665E-02   1.144048912775926E-02   1.158439276585393E-02
   1.173010648888690E-02   1.187765306492384E-02   1.202705554841746E-02
   1.217833728380975E-02   1.233152190917965E-02   1.248663335993653E-02
   1.264369587256016E-02   1.280273398838768E-02   1.296377255744825E-02
   1.312683674234592E-02   1.329195202219133E-02   1.345914419658290E-02
   1.362843938963803E-02   1.379986405407507E-02   1.397344497534659E-02
   1.414920927582470E-02   1.432718441903896E-02   1.450739821396758E-02
   1.468987881938266E-02   1.487465474825006E-02   1.506175487218458E-02
   1.525120842596127E-02   1.544304501208334E-02   1.563729460540767E-02
   1.583398755782841E-02   1.603315460301955E-02   1.623482686123714E-02
   1.643903584418180E-02   1.664581345992260E-02   1.685519201788268E-02
   1.706720423388769E-02   1.728188323527776E-02   1.749926256608361E-02
   1.771937619226793E-02   1.794225850703264E-02   1.816794433619287E-02
   1.839646894361862E-02   1.862786803674472E-02   1.886217777215024E-02
   1.909943476120807E-02   1.933967607580542E-02   1.958293925413651E-02
   1.982926230656786E-02   2.007868372157755E-02   2.033124247176914E-02
   2.058697801996116E-02   2.084593032535335E-02   2.110813984977026E-02
   2.137364756398353E-02   2.164249495411370E-02   2.191472402811242E-02
   2.219037732232641E-02   2.246949790814369E-02   2.275212939872367E-02
   2.303831595581176E-02   2.332810229663975E-02   2.362153370091300E-02
   2.391865601788540E-02   2.421951567352348E-02   2.452415967776053E-02
   2.483263563184200E-02   2.514499173576336E-02   2.546127679580132E-02
   2.578154023213999E-02   2.610583208659288E-02   2.643420303042201E-02
   2.676670437225546E-02   2.710338806610437E-02   2.744430671948088E-02
   2.778951360161818E-02   2.813906265179391E-02   2.849300848775838E-02
   2.885140641426854E-02   2.921431243172957E-02   2.958178324494504E-02
   2.995387627197711E-02   3.033064965311834E-02   3.071216225997605E-02
   3.109847370467126E-02   3.148964434915318E-02   3.188573531463079E-02
   3.228680849112336E-02   3.269292654713071E-02   3.310415293942532E-02
   3.352055192296764E-02   3.394218856094598E-02   3.436912873494292E-02
   3.480143915522922E-02   3.523918737118762E-02   3.568244178186744E-02
   3.613127164667215E-02   3.658574709618131E-02   3.704593914310855E-02
   3.751191969339743E-02   3.798376155745700E-02   3.846153846153846E-02
   3.894532505925518E-02   3.943519694324728E-02   3.993123065699329E-02
   4.043350370677019E-02   4.094209457376382E-02   4.145708272633199E-02
   4.197854863242123E-02   4.250657377214032E-02   4.304124065049159E-02
   4.358263281026255E-02   4.413083484507971E-02   4.468593241262629E-02
   4.524801224802658E-02   4.581716217739842E-02   4.639347113157618E-02
   4.697702916000654E-02   4.756792744481866E-02   4.816625831507174E-02
   4.877211526118155E-02   4.938559294952852E-02   5.000678723724967E-02
   5.063579518721623E-02   5.127271508320013E-02   5.191764644523093E-02
   5.257069004514602E-02   5.323194792233660E-02   5.390152339969130E-02
   5.457952109974069E-02   5.526604696100482E-02   5.596120825454620E-02
   5.666511360073138E-02   5.737787298620272E-02   5.809959778106436E-02
   5.883040075628384E-02   5.957039610131281E-02   6.031969944192958E-02
   6.107842785830554E-02   6.184669990329938E-02   6.262463562098119E-02
   6.341235656538954E-02   6.420998581952474E-02   6.501764801458046E-02
   6.583546934941789E-02   6.666357761028448E-02   6.750210219078071E-02
   6.835117411207842E-02   6.921092604339266E-02   7.008149232271192E-02
   7.096300897778850E-02   7.185561374739316E-02   7.275944610283731E-02
   7.367464726976526E-02   7.460136025022135E-02   7.553972984499417E-02
   7.648990267624199E-02   7.745202721040297E-02   7.842625378139291E-02
   7.941273461409568E-02   8.041162384814834E-02   8.142307756202595E-02
   8.244725379742922E-02   8.348431258397858E-02   8.453441596421934E-02
   8.559772801894112E-02   8.667441489281572E-02   8.776464482035785E-02
   8.886858815221171E-02   8.998641738176892E-02   9.111830717212083E-02
   9.226443438334993E-02   9.342497810016495E-02   9.460011965988271E-02
   9.579004268076277E-02   9.699493309069807E-02   9.821497915626641E-02
   9.945037151214796E-02   1.007013031909116E-01   1.019679696531772E-01
   1.032505688181566E-01   1.045493010945787E-01   1.058643694120041E-01
   1.071959792525328E-01   1.085443386829115E-01   1.099096583870448E-01
   1.112921516989139E-01   1.126920346359117E-01   1.141095259325949E-01
   1.155448470748628E-01   1.169982223345641E-01   1.184698788045397E-01
   1.199600464341075E-01   1.214689580649911E-01   1.229968494677029E-01
   1.245439593783832E-01   1.261105295361028E-01   1.276968047206366E-01
   1.293030327907089E-01   1.309294647227238E-01   1.325763546499799E-01
   1.342439599023785E-01   1.359325410466336E-01   1.376423619269839E-01
   1.393736897064208E-01   1.411267949084326E-01   1.429019514592732E-01
   1.446994367307659E-01   1.465195315836409E-01   1.483625204114220E-01
   1.502286911848636E-01   1.521183354969453E-01   1.540317486084357E-01
   1.559692294940260E-01   1.579310808890466E-01   1.599176093367696E-01
   1.619291252363061E-01   1.639659428911086E-01   1.660283805580786E-01
   1.681167604972983E-01   1.702314090223822E-01   1.723726565514640E-01
   1.745408376588272E-01   1.767362911271804E-01   1.789593600005950E-01
   1.812103916381056E-01   1.834897377679847E-01   1.857977545427032E-01
   1.881348025945772E-01   1.905012470921197E-01   1.928974577970986E-01
   1.953238091223108E-01   1.977806801900881E-01   2.002684548915327E-01
   2.027875219465035E-01   2.053382749643531E-01   2.079211125054295E-01
   2.105364381433540E-01   2.131846605280779E-01   2.158661934497367E-01
   2.185814559033057E-01   2.213308721540666E-01   2.241148718039030E-01
   2.269338898584238E-01   2.297883667949354E-01   2.326787486312673E-01
   2.356054869954610E-01   2.385690391963412E-01   2.415698682949679E-01
   2.446084431769934E-01   2.476852386259255E-01   2.508007353973120E-01
   2.539554202938629E-01   2.571497862415105E-01   2.603843323664336E-01
   2.636595640730455E-01   2.669759931229629E-01   2.703341377149731E-01
   2.737345225659999E-01   2.771776789930948E-01   2.806641449964553E-01
   2.841944653434866E-01   2.877691916539264E-01   2.913888824860326E-01
   2.950541034238626E-01   2.987654271656453E-01   3.025234336132651E-01
   3.063287099628761E-01   3.101818507966491E-01   3.140834581756787E-01
   3.180341417340567E-01   3.220345187741256E-01   3.260852143629377E-01
   3.301868614299191E-01   3.343401008657693E-01   3.385455816226005E-01
   3.428039608153360E-01   3.471159038243897E-01   3.514820843996280E-01
   3.559031847656496E-01   3.603798957283821E-01   3.649129167830202E-01
   3.695029562233274E-01   3.741507312523034E-01   3.788569680942531E-01
   3.836224021082587E-01   3.884477779030790E-01   3.933338494535004E-01
   3.982813802181421E-01   4.032911432587527E-01   4.083639213610004E-01
   4.135005071567829E-01   4.187017032480827E-01   4.239683223323694E-01
   4.293011873295909E-01   4.347011315107535E-01   4.401689986281200E-01
   4.457056430470540E-01   4.513119298795082E-01   4.569887351192075E-01
   4.627369457785208E-01   4.685574600270567E-01   4.744511873320102E-01
   4.804190486002620E-01   4.864619763222778E-01   4.925809147178093E-01
   4.987768198834282E-01   5.050506599419242E-01   5.114034151935688E-01
   5.178360782692966E-01   5.243496542857986E-01   5.309451610025806E-01
   5.376236289809865E-01   5.443861017452234E-01   5.512336359454211E-01
   5.581673015227279E-01   5.651881818764978E-01   5.722973740335712E-01
   5.794959888196843E-01   5.867851510330454E-01   5.941659996200779E-01
   6.016396878533912E-01   6.092073835119781E-01   6.168702690636798E-01
   6.246295418499561E-01   6.324864142729639E-01   6.404421139850055E-01
   6.484978840803480E-01   6.566549832894562E-01   6.649146861756794E-01
   6.732782833343958E-01   6.817470815946786E-01   6.903224042234868E-01
   6.990055911324257E-01   7.077979990871182E-01   7.167010019191929E-01
   7.257159907409571E-01   7.348443741627565E-01   7.440875785130699E-01
   7.534470480613854E-01   7.629242452438589E-01   7.725206508918334E-01
   7.822377644632165E-01   7.920771042767706E-01   8.020402077493629E-01
   8.121286316361780E-01   8.223439522739747E-01   8.326877658273875E-01
   8.431616885383258E-01   8.537673569785256E-01   8.645064283052548E-01
   8.753805805202588E-01   8.863915127319462E-01   8.975409454208739E-01
   9.088306207085866E-01   9.202623026298136E-01   9.318377774081146E-01
   9.435588537349759E-01   9.554273630524173E-01   9.674451598391691E-01
   9.796141219004267E-01   9.919361506612716E-01   1.004413171463769E+00
   1.017047133867800E+00   1.029840011955698E+00   1.042793804640689E+00
   1.055910535979235E+00   1.069192255487296E+00   1.082641038460564E+00
   1.096258986298743E+00   1.110048226833886E+00   1.124010914662882E+00
   1.138149231484115E+00   1.152465386438347E+00   1.166961616453922E+00
   1.181640186596267E+00   1.196503390421833E+00   1.211553550336460E+00
   1.226793017958250E+00   1.242224174485028E+00   1.257849431066391E+00
   1.273671229180473E+00   1.289692041015422E+00   1.305914369855675E+00
   1.322340750473124E+00   1.338973749523156E+00   1.355815965945713E+00
   1.372870031371381E+00   1.390138610532574E+00   1.407624401679925E+00
   1.425330137003869E+00   1.443258583061577E+00   1.461412541209223E+00
   1.479794848039698E+00   1.498408375825847E+00   1.517256032969252E+00
   1.536340764454690E+00   1.555665552310286E+00   1.575233416073454E+00
   1.595047413262724E+00   1.615110639855462E+00   1.635426230771646E+00
   1.655997360363691E+00   1.676827242912443E+00   1.697919133129434E+00
   1.719276326665418E+00   1.740902160625337E+00   1.762800014089750E+00
   1.784973308642807E+00   1.807425508906898E+00   1.830160123083989E+00
   1.853180703503801E+00   1.876490847178864E+00   1.900094196366546E+00
   1.923994439138185E+00   1.948195309955333E+00   1.972700590253296E+00
   1.997514109031980E+00   2.022639743454171E+00   2.048081419451373E+00
   2.073843112337214E+00   2.099928847428624E+00   2.126342700674788E+00
   2.153088799294006E+00   2.180171322418611E+00   2.207594501747932E+00
   2.235362622209538E+00   2.263480022628749E+00   2.291951096406577E+00
   2.320780292206233E+00   2.349972114648207E+00   2.379531125014149E+00
   2.409461941959574E+00   2.439769242235513E+00   2.470457761419306E+00
   2.501532294654500E+00   2.532997697400142E+00   2.564858886189431E+00
   2.597120839397929E+00   2.629788598021470E+00   2.662867266463794E+00
   2.696362013334148E+00   2.730278072254882E+00   2.764620742679195E+00
   2.799395390719221E+00   2.834607449984456E+00   2.870262422430804E+00
   2.906365879220257E+00   2.942923461591380E+00   2.979940881740807E+00
   3.017423923715737E+00   3.055378444317744E+00   3.093810374017897E+00
   3.132725717883390E+00   3.172130556515889E+00   3.212031047001588E+00
   3.252433423873308E+00   3.293344000084641E+00   3.334769167996342E+00
   3.376715400375189E+00   3.419189251405320E+00   3.462197357712377E+00
   3.505746439400478E+00   3.549843301102226E+00   3.594494833041990E+00
   3.639708012112467E+00   3.685489902964880E+00   3.731847659112825E+00
   3.778788524050003E+00   3.826319832382075E+00   3.874449010972659E+00
   3.923183580103834E+00   3.972531154651187E+00   4.022499445273624E+00
   4.073096259618231E+00   4.124329503540175E+00   4.176207182338062E+00
   4.228737402004755E+00   4.281928370493937E+00   4.335788399002666E+00
   4.390325903269963E+00   4.445549404891834E+00   4.501467532652766E+00
   4.558089023873975E+00   4.615422725778675E+00   4.673477596874422E+00
   4.732262708352944E+00   4.791787245507518E+00   4.852060509168161E+00
   4.913091917154963E+00   4.974891005749575E+00   5.037467431185330E+00
   5.100830971156025E+00   5.164991526343674E+00   5.229959121965582E+00
   5.295743909340720E+00   5.362356167475967E+00   5.429806304672192E+00
   5.498104860150539E+00   5.567262505699275E+00   5.637290047341200E+00
   5.708198427022177E+00   5.779998724320807E+00   5.852702158179601E+00
   5.926320088658035E+00   6.000864018707504E+00   6.076345595968748E+00
   6.152776614591795E+00   6.230169017078783E+00   6.308534896150077E+00
   6.387886496633697E+00   6.468236217378671E+00   6.549596613192351E+00
   6.631980396802090E+00   6.715400440841710E+00   6.799869779862787E+00
   6.885401612371410E+00   6.972009302890437E+00   7.059706384047692E+00
   7.148506558690551E+00   7.238423702026942E+00   7.329471863793461E+00
   7.421665270450638E+00   7.515018327405806E+00   7.609545621264067E+00
   7.705261922107378E+00   7.802182185802495E+00   7.900321556337821E+00
   7.999695368189640E+00   8.100319148718260E+00   8.202208620594080E+00
   8.305379704254388E+00   8.409848520390931E+00   8.515631392468737E+00
   8.622744849276819E+00   8.731205627510697E+00   8.841030674387648E+00
   8.952237150294703E+00   9.064842431469947E+00   9.178864112717687E+00
   9.294320010157568E+00   9.411228164008476E+00   9.529606841407320E+00
   9.649474539263254E+00   9.770849987147972E+00   9.893752150222115E+00
   1.001820023219872E+01   1.014421367834382E+01   1.027181217851470E+01
   1.040101567023665E+01   1.053184434181810E+01   1.066431863550515E+01
   1.079845925067575E+01   1.093428714707388E+01   1.107182354808474E+01
   1.121108994405078E+01   1.135210809562970E+01   1.149490003719464E+01
   1.163948808027692E+01   1.178589481705248E+01   1.193414312387178E+01
   1.208425616483439E+01   1.223625739540839E+01   1.239017056609525E+01
   1.254601972614109E+01   1.270382922729419E+01   1.286362372761019E+01
   1.302542819530491E+01   1.318926791265555E+01   1.335516847995135E+01
   1.352315581949341E+01   1.369325617964535E+01   1.386549613893453E+01
   1.403990261020496E+01   1.421650284482266E+01   1.439532443693355E+01
   1.457639532777521E+01   1.475974381004278E+01   1.494539853230957E+01
   1.513338850350371E+01   1.532374309744061E+01   1.551649205741289E+01
   1.571166550083771E+01   1.590929392396265E+01   1.610940820663093E+01
   1.631203961710633E+01   1.651721981695900E+01   1.672498086601264E+01
   1.693535522735380E+01   1.714837577240452E+01   1.736407578605829E+01
   1.758248897188111E+01   1.780364945737768E+01   1.802759179932373E+01
   1.825435098916588E+01   1.848396245848882E+01   1.871646208455181E+01
   1.895188619589449E+01   1.919027157801316E+01   1.943165547910883E+01
   1.967607561590708E+01   1.992357017955161E+01   2.017417784157156E+01
   2.042793775992389E+01   2.068488958511221E+01   2.094507346638190E+01
   2.120853005799380E+01   2.147530052557638E+01   2.174542655255789E+01
   2.201895034667969E+01   2.229591464659102E+01   2.257636272852726E+01
   2.286033841307185E+01   2.314788607200316E+01   2.343905063522800E+01
   2.373387759780168E+01   2.403241302703696E+01   2.433470356970208E+01
   2.464079645930926E+01   2.495073952349535E+01   2.526458119149461E+01
   2.558237050170622E+01   2.590415710935652E+01   2.622999129425752E+01
   2.655992396866363E+01   2.689400668522638E+01   2.723229164504998E+01
   2.757483170584769E+01   2.792168039020082E+01   2.827289189392207E+01
   2.862852109452335E+01   2.898862355979082E+01   2.935325555646737E+01
   2.972247405904423E+01   3.009633675866371E+01   3.047490207213315E+01
   3.085822915105304E+01   3.124637789105939E+01   3.163940894118240E+01
   3.203738371332341E+01   3.244036439185014E+01   3.284841394331352E+01
   3.326159612628622E+01   3.367997550132485E+01   3.410361744105805E+01
   3.453258814040070E+01   3.496695462689740E+01   3.540678477119543E+01
   3.585214729764955E+01   3.630311179506076E+01   3.675974872754914E+01
   3.722212944556448E+01   3.769032619703478E+01   3.816441213865485E+01
   3.864446134731777E+01   3.913054883168889E+01   3.962275054392668E+01
   4.012114339155016E+01   4.062580524945558E+01   4.113681497208516E+01
   4.165425240574754E+01   4.217819840109455E+01   4.270873482575404E+01
   4.324594457712156E+01   4.378991159531389E+01   4.434072087628418E+01
   4.489845848510328E+01   4.546321156940738E+01   4.603506837301475E+01