<UPF version="2.0.1">
  <PP_INFO>
    Generated using "atomic" code by A. Dal Corso  v.7.3.1
    Author: ADC
    Generation date: 19Sep2024
    Pseudopotential type: USPP
    Element: Li
    Functional: PBE
    Suggested minimum cutoff for wavefunctions:  78. Ry
    Suggested minimum cutoff for charge density: 355. Ry
    The Pseudo was generated with a Scalar-Relativistic Calculation
    Local Potential by smoothing AE potential with Bessel fncs, cutoff radius:   1.3000
    Valence configuration: 
    nl pn  l   occ       Rcut    Rcut US       E pseu
    1S  1  0  2.00      0.700      1.200    -3.811226
    2S  2  0  1.00      0.700      1.200    -0.211250
    Generation configuration:
    1S  1  0  2.00      0.700      1.200    -3.811241
    2S  2  0  1.00      0.700      1.200    -0.211252
    2P  2  1  0.00      2.000      2.200     0.300000
    2P  2  1  0.00      2.000      2.200     1.700000
    Pseudization used: troullier-martins
    <PP_INPUTFILE>
@input
title='Li',
zed=3.0,
rel=1,
config='1s2 2s1 2p0 3d-2',
iswitch=3,
dft='PBE'
/
@inputp
pseudotype=3,
file_pseudopw='Li.pbe-s-rrkjus_psl.0.2.1.UPF',
author='ADC',
lloc=-1,
rcloc=1.3,
which_augfun='PSQ',
rmatch_augfun=0.8,
tm=.true.
/
4
1S  1  0  2.00  0.00  0.70  1.20  0.0
2S  2  0  1.00  0.00  0.70  1.20  0.0
2P  2  1  0.00  0.30  2.00  2.20  0.0
2P  2  1  0.00  1.70  2.00  2.20  0.0
    </PP_INPUTFILE>
  </PP_INFO>
    <!-- END OF HUMAN READABLE SECTION -->
  <PP_HEADER generated="Generated using 'atomic' code by A. Dal Corso  v.7.3.1" author="ADC" date="19Sep2024" comment="" element="Li" pseudo_type="USPP" relativistic="scalar" is_ultrasoft="true" is_paw="false" is_coulomb="false" has_so="false" has_wfc="false" has_gipaw="false" paw_as_gipaw="false" core_correction="false" with_metagga_info="false" functional="PBE" z_valence="3.00000000000000" total_psenergy="-14.7098772764054" wfc_cutoff="78.3213485405200" rho_cutoff="354.959540395263" l_max="1" l_max_rho="2" l_local="-1" mesh_size="1017" number_of_wfc="2" number_of_proj="4"/>
  <PP_MESH mesh="1017" dx="1.250000000000000E-002" xmin="-7.00000000000000" rmax="100.000000000000" zmesh="3.00000000000000">
    <PP_R>
   3.039606551848388E-04   3.077840095563408E-04   3.116554558055274E-04
   3.155755988537513E-04   3.195450512313399E-04   3.235644331733030E-04
   3.276343727162462E-04   3.317555057965038E-04   3.359284763495035E-04
   3.401539364103849E-04   3.444325462158790E-04   3.487649743074729E-04
   3.531518976358700E-04   3.575940016667656E-04   3.620919804879526E-04
   3.666465369177728E-04   3.712583826149344E-04   3.759282381897108E-04
   3.806568333165358E-04   3.854449068480192E-04   3.902932069303915E-04
   3.952024911204043E-04   4.001735265037003E-04   4.052070898146716E-04
   4.103039675578270E-04   4.154649561306832E-04   4.206908619482049E-04
   4.259825015688081E-04   4.313407018219494E-04   4.367662999373200E-04
   4.422601436756639E-04   4.478230914612423E-04   4.534560125159646E-04
   4.591597869952057E-04   4.649353061253329E-04   4.707834723429605E-04
   4.767051994359582E-04   4.827014126862319E-04   4.887730490143010E-04
   4.949210571256956E-04   5.011463976591908E-04   5.074500433369106E-04
   5.138329791163168E-04   5.202962023441107E-04   5.268407229120723E-04
   5.334675634148547E-04   5.401777593097689E-04   5.469723590785753E-04
   5.538524243913113E-04   5.608190302721804E-04   5.678732652675246E-04
   5.750162316159141E-04   5.822490454203733E-04   5.895728368227735E-04
   5.969887501804232E-04   6.044979442448717E-04   6.121015923429690E-04
   6.198008825602004E-04   6.275970179263258E-04   6.354912166033588E-04
   6.434847120759031E-04   6.515787533438890E-04   6.597746051177322E-04
   6.680735480159464E-04   6.764768787652447E-04   6.849859104031530E-04
   6.936019724831764E-04   7.023264112825447E-04   7.111605900125694E-04
   7.201058890316515E-04   7.291637060609617E-04   7.383354564028389E-04
   7.476225731619345E-04   7.570265074691357E-04   7.665487287083120E-04
   7.761907247459046E-04   7.859540021634110E-04   7.958400864927911E-04
   8.058505224548345E-04   8.159868742005277E-04   8.262507255554528E-04
   8.366436802672662E-04   8.471673622562861E-04   8.578234158692333E-04
   8.686135061361661E-04   8.795393190306405E-04   8.906025617331502E-04
   9.018049628978756E-04   9.131482729227894E-04   9.246342642231629E-04
   9.362647315085043E-04   9.480414920629891E-04   9.599663860294143E-04
   9.720412766967226E-04   9.842680507911488E-04   9.966486187710200E-04
   1.009184915125272E-03   1.021878898675714E-03   1.034732552883103E-03
   1.047747886157060E-03   1.060926932169889E-03   1.074271750174342E-03
   1.087784425325383E-03   1.101467069005994E-03   1.115321819157091E-03
   1.129350840611570E-03   1.143556325432578E-03   1.157940493256018E-03
   1.172505591637376E-03   1.187253896402910E-03   1.202187712005244E-03
   1.217309371883448E-03   1.232621238827644E-03   1.248125705348193E-03
   1.263825194049536E-03   1.279722158008721E-03   1.295819081158710E-03
   1.312118478676494E-03   1.328622897376097E-03   1.345334916106520E-03
   1.362257146154689E-03   1.379392231653479E-03   1.396742849994860E-03
   1.414311712248247E-03   1.432101563584113E-03   1.450115183702923E-03
   1.468355387269469E-03   1.486825024352667E-03   1.505526980870889E-03
   1.524464179042891E-03   1.543639577844415E-03   1.563056173470537E-03
   1.582716999803826E-03   1.602625128888395E-03   1.622783671409921E-03
   1.643195777181684E-03   1.663864635636739E-03   1.684793476326271E-03
   1.705985569424217E-03   1.727444226238242E-03   1.749172799727128E-03
   1.771174685024692E-03   1.793453319970274E-03   1.816012185645908E-03
   1.838854806920257E-03   1.861984752999367E-03   1.885405637984369E-03
   1.909121121436195E-03   1.933134908947380E-03   1.957450752721084E-03
   1.982072452157365E-03   2.007003854446853E-03   2.032248855171879E-03
   2.057811398915167E-03   2.083695479876187E-03   2.109905142495249E-03
   2.136444482085461E-03   2.163317645472629E-03   2.190528831643204E-03
   2.218082292400391E-03   2.245982333028489E-03   2.274233312965609E-03
   2.302839646484844E-03   2.331805803384004E-03   2.361136309684042E-03
   2.390835748336233E-03   2.420908759938297E-03   2.451360043459479E-03
   2.482194356974779E-03   2.513416518408425E-03   2.545031406286654E-03
   2.577043960500023E-03   2.609459183075258E-03   2.642282138956831E-03
   2.675517956798387E-03   2.709171829764070E-03   2.743249016340010E-03
   2.777754841155936E-03   2.812694695817177E-03   2.848074039747116E-03
   2.883898401040211E-03   2.920173377325809E-03   2.956904636642753E-03
   2.994097918325039E-03   3.031759033898608E-03   3.069893867989380E-03
   3.108508379242775E-03   3.147608601254737E-03   3.187200643514502E-03
   3.227290692359231E-03   3.267885011940609E-03   3.308989945203671E-03
   3.350611914877862E-03   3.392757424480623E-03   3.435433059333583E-03
   3.478645487591501E-03   3.522401461284218E-03   3.566707817371643E-03
   3.611571478812050E-03   3.656999455643829E-03   3.702998846080769E-03
   3.749576837621222E-03   3.796740708171126E-03   3.844497827181207E-03
   3.892855656798484E-03   3.941821753032206E-03   3.991403766934540E-03
   4.041609445796033E-03   4.092446634356145E-03   4.143923276029031E-03
   4.196047414144666E-03   4.248827193205689E-03   4.302270860159958E-03
   4.356386765689160E-03   4.411183365513647E-03   4.466669221713610E-03
   4.522853004066978E-03   4.579743491404047E-03   4.637349572979206E-03
   4.695680249859912E-03   4.754744636333085E-03   4.814551961329293E-03
   4.875111569864741E-03   4.936432924501467E-03   4.998525606825906E-03
   5.061399318945982E-03   5.125063885007144E-03   5.189529252727363E-03
   5.254805494951495E-03   5.320902811225207E-03   5.387831529388625E-03
   5.455602107190143E-03   5.524225133920418E-03   5.593711332066986E-03
   5.664071558989694E-03   5.735316808617128E-03   5.807458213164505E-03
   5.880507044873054E-03   5.954474717771344E-03   6.029372789458771E-03
   6.105212962911393E-03   6.182007088310629E-03   6.259767164894803E-03
   6.338505342834085E-03   6.418233925128977E-03   6.498965369532665E-03
   6.580712290497594E-03   6.663487461146477E-03   6.747303815268130E-03
   6.832174449338420E-03   6.918112624566580E-03   7.005131768967343E-03
   7.093245479459058E-03   7.182467523988257E-03   7.272811843680924E-03
   7.364292555020815E-03   7.456923952055200E-03   7.550720508628324E-03
   7.645696880642977E-03   7.741867908350525E-03   7.839248618669702E-03
   7.937854227534626E-03   8.037700142272291E-03   8.138801964010012E-03
   8.241175490113132E-03   8.344836716653382E-03   8.449801840908315E-03
   8.556087263892145E-03   8.663709592918449E-03   8.772685644195104E-03
   8.883032445451829E-03   8.994767238600829E-03   9.107907482430856E-03
   9.222470855335193E-03   9.338475258073941E-03   9.455938816571034E-03
   9.574879884746477E-03   9.695317047384159E-03   9.817269123035764E-03
   9.940755166961237E-03   1.006579447410617E-02   1.019240658211670E-02
   1.032061127439230E-02   1.045042858317696E-02   1.058187879268932E-02
   1.071498244229202E-02   1.084976032970114E-02   1.098623351423579E-02
   1.112442332010869E-02   1.126435133975819E-02   1.140603943722201E-02
   1.154950975155367E-02   1.169478470028168E-02   1.184188698291232E-02
   1.199083958447656E-02   1.214166577912141E-02   1.229438913374667E-02
   1.244903351168721E-02   1.260562307644169E-02   1.276418229544822E-02
   1.292473594390734E-02   1.308730910865327E-02   1.325192719207377E-02
   1.341861591607928E-02   1.358740132612207E-02   1.375830979526585E-02
   1.393136802830664E-02   1.410660306594544E-02   1.428404228901340E-02
   1.446371342275012E-02   1.464564454113581E-02   1.482986407127784E-02
   1.501640079785261E-02   1.520528386760314E-02   1.539654279389337E-02
   1.559020746131966E-02   1.578630813038031E-02   1.598487544220382E-02
   1.618594042333666E-02   1.638953449059119E-02   1.659568945595465E-02
   1.680443753155979E-02   1.701581133471814E-02   1.722984389301647E-02
   1.744656864947746E-02   1.766601946778527E-02   1.788823063757671E-02
   1.811323687979917E-02   1.834107335213575E-02   1.857177565449880E-02
   1.880537983459245E-02   1.904192239354510E-02   1.928144029161283E-02
   1.952397095395452E-02   1.976955227647957E-02   2.001822263176932E-02
   2.027002087507266E-02   2.052498635037741E-02   2.078315889655782E-02
   2.104457885359946E-02   2.130928706890252E-02   2.157732490366418E-02
   2.184873423934145E-02   2.212355748419521E-02   2.240183757991658E-02
   2.268361800833673E-02   2.296894279822086E-02   2.325785653214789E-02
   2.355040435347654E-02   2.384663197339907E-02   2.414658567808382E-02
   2.445031233590738E-02   2.475785940477797E-02   2.506927493955081E-02
   2.538460759953677E-02   2.570390665610557E-02   2.602722200038439E-02
   2.635460415105356E-02   2.668610426224019E-02   2.702177413151108E-02
   2.736166620796627E-02   2.770583360043419E-02   2.805433008577013E-02
   2.840721011725896E-02   2.876452883312350E-02   2.912634206514013E-02
   2.949270634736244E-02   2.986367892495491E-02   3.023931776313752E-02
   3.061968155624296E-02   3.100482973688783E-02   3.139482248525890E-02
   3.178972073851655E-02   3.218958620031629E-02   3.259448135045002E-02
   3.300446945460877E-02   3.341961457426792E-02   3.383998157669703E-02
   3.426563614509548E-02   3.469664478885555E-02   3.513307485395478E-02
   3.557499453347874E-02   3.602247287827644E-02   3.647557980774966E-02
   3.693438612077799E-02   3.739896350678124E-02   3.786938455692126E-02
   3.834572277544415E-02   3.882805259116567E-02   3.931644936910086E-02
   3.981098942223987E-02   4.031175002347223E-02   4.081880941766065E-02
   4.133224683386710E-02   4.185214249773244E-02   4.237857764401187E-02
   4.291163452926808E-02   4.345139644472390E-02   4.399794772927676E-02
   4.455137378267684E-02   4.511176107887090E-02   4.567919717951416E-02
   4.625377074765177E-02   4.683557156157273E-02   4.742469052883789E-02
   4.802121970048442E-02   4.862525228540914E-02   4.923688266493229E-02
   4.985620640754505E-02   5.048332028384223E-02   5.111832228164282E-02
   5.176131162130101E-02   5.241238877120922E-02   5.307165546349678E-02
   5.373921470992563E-02   5.441517081798614E-02   5.509962940719552E-02
   5.579269742560086E-02   5.649448316649006E-02   5.720509628531295E-02
   5.792464781681505E-02   5.865325019238717E-02   5.939101725763283E-02
   6.013806429015695E-02   6.089450801757826E-02   6.166046663576810E-02
   6.243605982731901E-02   6.322140878024511E-02   6.401663620691807E-02
   6.482186636324122E-02   6.563722506806469E-02   6.646283972284506E-02
   6.729883933155183E-02   6.814535452082469E-02   6.900251756038427E-02
   6.987046238369927E-02   7.074932460891437E-02   7.163924156004021E-02
   7.254035228841101E-02   7.345279759441133E-02   7.437672004947661E-02
   7.531226401837030E-02   7.625957568174084E-02   7.721880305896296E-02
   7.819009603126593E-02   7.917360636515271E-02   8.016948773611406E-02
   8.117789575264027E-02   8.219898798053553E-02   8.323292396753791E-02
   8.427986526824882E-02   8.533997546937670E-02   8.641342021529720E-02
   8.750036723393580E-02   8.860098636297559E-02   8.971544957639462E-02
   9.084393101133754E-02   9.198660699532440E-02   9.314365607380248E-02
   9.431525903804434E-02   9.550159895339670E-02   9.670286118788513E-02
   9.791923344117764E-02   9.915090577391357E-02   1.003980706374008E-01
   1.016609229036864E-01   1.029396598960066E-01   1.042344814196180E-01
   1.055455897930178E-01   1.068731898795570E-01   1.082174891194499E-01
   1.095786975621881E-01   1.109570278993599E-01   1.123526954978848E-01
   1.137659184336646E-01   1.151969175256582E-01   1.166459163703851E-01
   1.181131413768629E-01   1.195988218019839E-01   1.211031897863372E-01
   1.226264803904808E-01   1.241689316316710E-01   1.257307845210524E-01
   1.273122831013164E-01   1.289136744848338E-01   1.305352088922663E-01
   1.321771396916643E-01   1.338397234380556E-01   1.355232199135331E-01
   1.372278921678463E-01   1.389540065595028E-01   1.407018327973885E-01
   1.424716439829089E-01   1.442637166526625E-01   1.460783308216499E-01
   1.479157700270266E-01   1.497763213724072E-01   1.516602755727246E-01
   1.535679269996554E-01   1.554995737276162E-01   1.574555175803382E-01
   1.594360641780281E-01   1.614415229851209E-01   1.634722073586355E-01
   1.655284345971366E-01   1.676105259903136E-01   1.697188068691831E-01
   1.718536066569214E-01   1.740152589203388E-01   1.762041014219992E-01
   1.784204761729968E-01   1.806647294863958E-01   1.829372120313422E-01
   1.852382788878572E-01   1.875682896023187E-01   1.899276082436410E-01
   1.923166034601622E-01   1.947356485372453E-01   1.971851214556052E-01
   1.996654049503686E-01   2.021768865708778E-01   2.047199587412460E-01
   2.072950188216734E-01   2.099024691705368E-01   2.125427172072579E-01
   2.152161754759640E-01   2.179232617099491E-01   2.206643988969448E-01
   2.234400153452132E-01   2.262505447504716E-01   2.290964262636574E-01
   2.319781045595474E-01   2.348960299062379E-01   2.378506582355010E-01
   2.408424512140242E-01   2.438718763155473E-01   2.469394068939060E-01
   2.500455222569940E-01   2.531907077416563E-01   2.563754547895237E-01
   2.596002610238016E-01   2.628656303270256E-01   2.661720729197924E-01
   2.695201054404843E-01   2.729102510259941E-01   2.763430393934668E-01
   2.798190069230692E-01   2.833386967417995E-01   2.869026588083528E-01
   2.905114499990528E-01   2.941656341948651E-01   2.978657823695053E-01
   3.016124726786533E-01   3.054062905502927E-01   3.092478287761845E-01
   3.131376876044920E-01   3.170764748335714E-01   3.210648059069407E-01
   3.251033040094444E-01   3.291926001646274E-01   3.333333333333333E-01
   3.375261505135449E-01   3.417717068414765E-01   3.460706656939418E-01
   3.504236987920082E-01   3.548314863059531E-01   3.592947169615439E-01
   3.638140881476506E-01   3.683903060252161E-01   3.730240856375938E-01
   3.777161510222755E-01   3.824672353240242E-01   3.872780809094278E-01
   3.921494394828970E-01   3.970820722041197E-01   4.020767498069935E-01
   4.071342527200567E-01   4.122553711884284E-01   4.174409053972883E-01
   4.226916655969068E-01   4.280084722292471E-01   4.333921560561638E-01
   4.388435582892073E-01   4.443635307210678E-01   4.499529358586680E-01
   4.556126470579321E-01   4.613435486602506E-01   4.671465361306579E-01
   4.730225161977527E-01   4.789724069953751E-01   4.849971382060671E-01
   4.910976512063386E-01   4.972748992137569E-01   5.035298474358911E-01
   5.098634732211266E-01   5.162767662113777E-01   5.227707284967230E-01
   5.293463747719813E-01   5.360047324952613E-01   5.427468420485037E-01
   5.495737569000427E-01   5.564865437692144E-01   5.634862827930306E-01
   5.705740676949551E-01   5.777510059557988E-01   5.850182189867662E-01
   5.923768423046796E-01   5.998280257094031E-01   6.073729334635033E-01
   6.150127444741670E-01   6.227486524774074E-01   6.305818662245900E-01
   6.385136096712989E-01   6.465451221685851E-01   6.546776586566162E-01
   6.629124898607640E-01   6.712509024901591E-01   6.796941994387385E-01
   6.882436999888292E-01   6.969007400172856E-01   7.056666722042250E-01
   7.145428662443866E-01   7.235307090611477E-01   7.326316050232343E-01
   7.418469761641564E-01   7.511782624044029E-01   7.606269217764347E-01
   7.701944306525016E-01   7.798822839753307E-01   7.896919954917139E-01
   7.996250979890327E-01   8.096831435347629E-01   8.198677037189835E-01
   8.301803698999440E-01   8.406227534527165E-01   8.511964860209756E-01
   8.619032197719489E-01   8.727446276545673E-01   8.837224036608693E-01
   8.948382630906907E-01   9.060939428196817E-01   9.174912015707024E-01
   9.290318201886172E-01   9.407176019185665E-01   9.525503726877219E-01
   9.645319813905870E-01   9.766643001779016E-01   9.889492247491561E-01
   1.001388674648811E+00   1.013984593566222E+00   1.026738949639344E+00
   1.039653735762265E+00   1.052730969896590E+00   1.065972695386758E+00
   1.079380981279321E+00   1.092957922646224E+00   1.106705640912184E+00
   1.120626284186143E+00   1.134722027596939E+00   1.148995073633159E+00
   1.163447652487281E+00   1.178082022404158E+00   1.192900470033860E+00
   1.207905310788980E+00   1.223098889206416E+00   1.238483579313701E+00
   1.254061784999972E+00   1.269835940391554E+00   1.285808510232324E+00
   1.301981990268818E+00   1.318358907640192E+00   1.334941821273110E+00
   1.351733322281559E+00   1.368736034371737E+00   1.385952614252004E+00
   1.403385752047987E+00   1.421038171722941E+00   1.438912631503348E+00
   1.457011924309919E+00   1.475338878193979E+00   1.493896356779355E+00
   1.512687259709836E+00   1.531714523102230E+00   1.550981120005156E+00
   1.570490060863581E+00   1.590244393989201E+00   1.610247206036761E+00
   1.630501622486335E+00   1.651010808131704E+00   1.671777967574854E+00
   1.692806345726694E+00   1.714099228314097E+00   1.735659942393283E+00
   1.757491856869697E+00   1.779598383024393E+00   1.801982975047056E+00
   1.824649130575735E+00   1.847600391243341E+00   1.870840343231052E+00
   1.894372617828649E+00   1.918200892001910E+00   1.942328888967160E+00
   1.966760378773006E+00   1.991499178889441E+00   2.016549154804317E+00
   2.041914220627329E+00   2.067598339701624E+00   2.093605525223055E+00
   2.119939840867276E+00   2.146605401424688E+00   2.173606373443371E+00
   2.200946975880145E+00   2.228631480759757E+00   2.256664213842424E+00
   2.285049555299727E+00   2.313791940399012E+00   2.342895860196434E+00
   2.372365862238666E+00   2.402206551273488E+00   2.432422589969279E+00
   2.463018699643550E+00   2.493999661000695E+00   2.525370314878950E+00
   2.557135563006809E+00   2.589300368768926E+00   2.621869757981631E+00
   2.654848819678260E+00   2.688242706904292E+00   2.722056637522549E+00
   2.756295895028491E+00   2.790965829375755E+00   2.826071857812127E+00
   2.861619465725965E+00   2.897614207503334E+00   2.934061707395871E+00
   2.970967660399579E+00   3.008337833144710E+00   3.046178064796776E+00
   3.084494267968963E+00   3.123292429645979E+00   3.162578612119509E+00
   3.202358953935504E+00   3.242639670853296E+00   3.283427056816860E+00
   3.324727484938242E+00   3.366547408493351E+00   3.408893361930337E+00
   3.451771961890565E+00   3.495189908242523E+00   3.539153985128670E+00
   3.583671062025452E+00   3.628748094816717E+00   3.674392126880535E+00
   3.720610290189788E+00   3.767409806426530E+00   3.814797988110374E+00
   3.862782239741134E+00   3.911370058955738E+00   3.960569037699798E+00
   4.010386863413847E+00   4.060831320234491E+00   4.111910290210756E+00
   4.163631754535604E+00   4.216003794793074E+00   4.269034594221014E+00
   4.322732438989711E+00   4.377105719496677E+00   4.432162931677596E+00
   4.487912678333903E+00   4.544363670476922E+00   4.601524728689031E+00
   4.659404784501882E+00   4.718012881791936E+00   4.777358178193650E+00
   4.837449946530309E+00   4.898297576262981E+00   4.959910574957616E+00
   5.022298569770597E+00   5.085471308953060E+00   5.149438663374009E+00
   5.214210628062724E+00   5.279797323770477E+00   5.346208998551892E+00
   5.413456029366286E+00   5.481548923699020E+00   5.550498321203381E+00
   5.620314995363016E+00   5.691009855175287E+00   5.762593946855888E+00
   5.835078455564763E+00   5.908474707153881E+00   5.982794169936885E+00
   6.058048456481022E+00   6.134249325421691E+00   6.211408683299672E+00
   6.289538586421628E+00   6.368651242743890E+00   6.448759013779939E+00
   6.529874416532007E+00   6.612010125446777E+00   6.695178974395890E+00
   6.779393958681209E+00   6.864668237065345E+00   6.951015133827812E+00
   7.038448140846875E+00   7.126980919707781E+00   7.216627303837359E+00
   7.307401300665490E+00   7.399317093813888E+00   7.492389045312208E+00
   7.586631697842243E+00   7.682059777010200E+00   7.778688193647574E+00
   7.876532046141083E+00   7.975606622791717E+00   8.075927404203659E+00
   8.177510065703125E+00   8.280370479787615E+00   8.384524718606132E+00
   8.489989056470366E+00   8.596779972397687E+00   8.704914152685998E+00
   8.814408493520935E+00   8.925280103616052E+00   9.037546306885970E+00
   9.151224645153366E+00   9.266332880889896E+00   9.382888999991552E+00
   9.500911214589106E+00   9.620417965893678E+00   9.741427927078314E+00
   9.863960006195660E+00   9.988033349132342E+00   1.011366734260065E+01
   1.024088161716764E+01   1.036969605032255E+01   1.050013076958266E+01
   1.063220615563817E+01   1.076594284553691E+01   1.090136173590872E+01
   1.103848398623077E+01   1.117733102213366E+01   1.131792453874918E+01
   1.146028650410041E+01   1.160443916253402E+01   1.175040503819618E+01
   1.189820693855197E+01   1.204786795794898E+01   1.219941148122601E+01
   1.235286118736686E+01   1.250824105320033E+01   1.266557535714660E+01
   1.282488868301071E+01   1.298620592382401E+01   1.314955228573352E+01
   1.331495329194065E+01   1.348243478668915E+01   1.365202293930327E+01
   1.382374424827694E+01   1.399762554541400E+01   1.417369400002093E+01
   1.435197712315199E+01   1.453250277190784E+01   1.471529915378843E+01
   1.490039483110029E+01   1.508781872541959E+01   1.527760012211117E+01
   1.546976867490432E+01   1.566435441052645E+01   1.586138773339457E+01
   1.606089943036627E+01   1.626292067555015E+01   1.646748303517673E+01
   1.667461847253094E+01   1.688435935294622E+01   1.709673844886190E+01
   1.731178894494383E+01   1.752954444326948E+01   1.775003896857856E+01
   1.797330697358919E+01   1.819938334438141E+01   1.842830340584816E+01
   1.866010292721472E+01   1.889481812762796E+01   1.913248568181541E+01
   1.937314272581600E+01   1.961682686278249E+01   1.986357616885700E+01
   2.011342919912068E+01   2.036642499361779E+01   2.062260308345596E+01
   2.088200349698297E+01   2.114466676604112E+01   2.141063393230065E+01
   2.167994655367234E+01   2.195264671080123E+01   2.222877701364174E+01
   2.250838060811538E+01   2.279150118285274E+01   2.307818297601955E+01
   2.336847078222928E+01   2.366240995954231E+01   2.396004643655303E+01
   2.426142671956658E+01   2.456659789986528E+01   2.487560766106697E+01
   2.518850428657556E+01   2.550533666712530E+01   2.582615430842032E+01
   2.615100733886972E+01   2.647994651742044E+01   2.681302324148844E+01
   2.715028955498938E+01   2.749179815647104E+01   2.783760240734709E+01
   2.818775634023534E+01   2.854231466740022E+01   2.890133278930163E+01
   2.926486680325164E+01   2.963297351217944E+01   3.000571043350727E+01
   3.038313580813748E+01   3.076530860955263E+01   3.115228855303058E+01
   3.154413610497472E+01   3.194091249236229E+01   3.234267971231115E+01
   3.274950054176669E+01   3.316143854731131E+01   3.357855809509638E+01
   3.400092436089989E+01   3.442860334031028E+01   3.486166185903807E+01
   3.530016758335801E+01   3.574418903068152E+01   3.619379558026320E+01
   3.664905748404120E+01   3.711004587761412E+01   3.757683279135644E+01
   3.804949116167301E+01   3.852809484239589E+01   3.901271861632397E+01
   3.950343820690778E+01   4.000033029008186E+01   4.050347250624499E+01
   4.101294347239218E+01   4.152882279439849E+01   4.205119107945739E+01
   4.258012994867634E+01   4.311572204982966E+01   4.365805107027287E+01
   4.420720175001889E+01   4.476325989497851E+01   4.532631239036837E+01
   4.589644721428624E+01   4.647375345145839E+01   4.705832130715900E+01
   4.765024212130467E+01   4.824960838272705E+01   4.885651374362373E+01
   4.947105303419220E+01   5.009332227744699E+01   5.072341870422321E+01
   5.136144076836964E+01   5.200748816213170E+01   5.266166183172916E+01
   5.332406399312890E+01   5.399479814801612E+01   5.467396909996733E+01
   5.536168297082537E+01   5.605804721728182E+01   5.676317064766705E+01
   5.747716343895144E+01   5.820013715396149E+01   5.893220475881082E+01
   5.967348064055222E+01   6.042408062505046E+01   6.118412199508000E+01
   6.195372350865144E+01   6.273300541756683E+01   6.352208948621000E+01
   6.432109901057220E+01   6.513015883751699E+01   6.594939538428858E+01
   6.677893665826394E+01   6.761891227695496E+01   6.846945348826112E+01
   6.933069319097687E+01   7.020276595555825E+01   7.108580804514868E+01
   7.197995743687137E+01   7.288535384338806E+01   7.380213873472906E+01
   7.473045536039909E+01   7.567044877175937E+01   7.662226584469295E+01
   7.758605530255410E+01   7.856196773940620E+01   7.955015564355328E+01
   8.055077342136559E+01   8.156397742140679E+01   8.258992595886345E+01
   8.362877934028153E+01   8.468069988861576E+01   8.574585196859165E+01
   8.682440201238893E+01   8.791651854564641E+01   8.902237221379404E+01
   9.014213580871767E+01   9.127598429575686E+01   9.242409484104466E+01
   9.358664683918984E+01   9.476382194130697E+01   9.595580408340112E+01
   9.716277951510672E+01   9.838493682879077E+01   9.962246698902020E+01
    </PP_R>
    <PP_RAB>
   3.799508189810485E-06   3.847300119454260E-06   3.895693197569092E-06
   3.944694985671892E-06   3.994313140391749E-06   4.044555414666288E-06
   4.095429658953078E-06   4.146943822456297E-06   4.199105954368794E-06
   4.251924205129812E-06   4.305406827698488E-06   4.359562178843411E-06
   4.414398720448376E-06   4.469925020834570E-06   4.526149756099408E-06
   4.583081711472160E-06   4.640729782686680E-06   4.699102977371385E-06
   4.758210416456698E-06   4.818061335600241E-06   4.878665086629894E-06
   4.940031139005054E-06   5.002169081296253E-06   5.065088622683395E-06
   5.128799594472837E-06   5.193311951633541E-06   5.258635774352561E-06
   5.324781269610102E-06   5.391758772774367E-06   5.459578749216501E-06
   5.528251795945798E-06   5.597788643265528E-06   5.668200156449558E-06
   5.739497337440072E-06   5.811691326566662E-06   5.884793404287007E-06
   5.958814992949477E-06   6.033767658577898E-06   6.109663112678763E-06
   6.186513214071196E-06   6.264329970739885E-06   6.343125541711382E-06
   6.422912238953960E-06   6.503702529301384E-06   6.585509036400904E-06
   6.668344542685684E-06   6.752221991372112E-06   6.837154488482192E-06
   6.923155304891392E-06   7.010237878402256E-06   7.098415815844058E-06
   7.187702895198926E-06   7.278113067754666E-06   7.369660460284669E-06
   7.462359377255291E-06   7.556224303060897E-06   7.651269904287114E-06
   7.747511032002506E-06   7.844962724079072E-06   7.943640207541985E-06
   8.043558900948789E-06   8.144734416798613E-06   8.247182563971653E-06
   8.350919350199330E-06   8.455960984565559E-06   8.562323880039413E-06
   8.670024656039705E-06   8.779080141031808E-06   8.889507375157117E-06
   9.001323612895645E-06   9.114546325762020E-06   9.229193205035488E-06
   9.345282164524181E-06   9.462831343364197E-06   9.581859108853902E-06
   9.702384059323809E-06   9.824425027042639E-06   9.948001081159890E-06
   1.007313153068543E-05   1.019983592750660E-05   1.032813406944316E-05
   1.045804600334083E-05   1.058959202820358E-05   1.072279269836542E-05
   1.085766882670208E-05   1.099424148788301E-05   1.113253202166438E-05
   1.127256203622345E-05   1.141435341153487E-05   1.155792830278954E-05
   1.170330914385630E-05   1.185051865078737E-05   1.199957982536768E-05
   1.215051595870903E-05   1.230335063488936E-05   1.245810773463775E-05
   1.261481143906590E-05   1.277348623344643E-05   1.293415691103879E-05
   1.309684857696325E-05   1.326158665212361E-05   1.342839687717928E-05
   1.359730531656729E-05   1.376833836257493E-05   1.394152273946363E-05
   1.411688550764463E-05   1.429445406790723E-05   1.447425616570022E-05
   1.465631989546720E-05   1.484067370503637E-05   1.502734640006554E-05
   1.521636714854310E-05   1.540776548534555E-05   1.560157131685242E-05
   1.579781492561920E-05   1.599652697510901E-05   1.619773851448388E-05
   1.640148098345618E-05   1.660778621720121E-05   1.681668645133149E-05
   1.702821432693361E-05   1.724240289566849E-05   1.745928562493575E-05
   1.767889640310308E-05   1.790126954480142E-05   1.812643979628654E-05